n -t * -s 0  -x 0 -y 100 -Z 100 -z 30  -v circle -c black
n -t * -s 1  -x 300 -y 100 -Z 100 -z 30  -v circle -c black
n -t * -s 2  -x 600 -y 100 -Z 100 -z 30  -v circle -c black
V -t * -v 1.0a5 -a 0
W -t * -x 1000 -y 1000
A -t * -n 1 -p 0 -o 0x7fffffff -c 30 -a 1
A -t * -h 1 -m 1073741823 -s 0
+ -t 1.000000000 -s 0 -d -1 -p cbr -e 512 -c 2 -a 0 -i 0 -k AGT 
- -t 1.000000000 -s 0 -d -1 -p cbr -e 512 -c 2 -a 0 -i 0 -k AGT
h -t 1.000000000 -s 0 -d -1 -p cbr -e 512 -c 2 -a 0 -i 0 -k AGT
+ -t 1.000000000 -s 2 -d -1 -p cbr -e 512 -c 2 -a 0 -i 1 -k AGT 
- -t 1.000000000 -s 2 -d -1 -p cbr -e 512 -c 2 -a 0 -i 1 -k AGT
h -t 1.000000000 -s 2 -d -1 -p cbr -e 512 -c 2 -a 0 -i 1 -k AGT
+ -t 1.000000000 -s 0 -d -1 -p AODV -e 48 -c 2 -a 0 -i 0 -k RTR 
- -t 1.000000000 -s 0 -d -1 -p AODV -e 48 -c 2 -a 0 -i 0 -k RTR
h -t 1.000000000 -s 0 -d -1 -p AODV -e 48 -c 2 -a 0 -i 0 -k RTR
+ -t 1.000000000 -s 2 -d -1 -p AODV -e 48 -c 2 -a 0 -i 0 -k RTR 
- -t 1.000000000 -s 2 -d -1 -p AODV -e 48 -c 2 -a 0 -i 0 -k RTR
h -t 1.000000000 -s 2 -d -1 -p AODV -e 48 -c 2 -a 0 -i 0 -k RTR
+ -t 1.000375000 -s 2 -d -1 -p AODV -e 106 -c 2 -a 0 -i 0 -k MAC 
- -t 1.000375000 -s 2 -d -1 -p AODV -e 106 -c 2 -a 0 -i 0 -k MAC
h -t 1.000375000 -s 2 -d -1 -p AODV -e 106 -c 2 -a 0 -i 0 -k MAC
+ -t 1.000635000 -s 0 -d -1 -p AODV -e 106 -c 2 -a 0 -i 0 -k MAC 
- -t 1.000635000 -s 0 -d -1 -p AODV -e 106 -c 2 -a 0 -i 0 -k MAC
h -t 1.000635000 -s 0 -d -1 -p AODV -e 106 -c 2 -a 0 -i 0 -k MAC
d -t 1.000636000 -s 1 -d -1 -p AODV -e 106 -c 2 -a 0 -i 0 -k MAC
d -t 1.001484000 -s 1 -d -1 -p AODV -e 106 -c 2 -a 0 -i 0 -k MAC
+ -t 1.050033958 -s 0 -d -1 -p cbr -e 512 -c 2 -a 0 -i 2 -k AGT 
- -t 1.050033958 -s 0 -d -1 -p cbr -e 512 -c 2 -a 0 -i 2 -k AGT
h -t 1.050033958 -s 0 -d -1 -p cbr -e 512 -c 2 -a 0 -i 2 -k AGT
+ -t 1.105588072 -s 2 -d -1 -p cbr -e 512 -c 2 -a 0 -i 3 -k AGT 
- -t 1.105588072 -s 2 -d -1 -p cbr -e 512 -c 2 -a 0 -i 3 -k AGT
h -t 1.105588072 -s 2 -d -1 -p cbr -e 512 -c 2 -a 0 -i 3 -k AGT
+ -t 1.131330135 -s 0 -d -1 -p cbr -e 512 -c 2 -a 0 -i 4 -k AGT 
- -t 1.131330135 -s 0 -d -1 -p cbr -e 512 -c 2 -a 0 -i 4 -k AGT
h -t 1.131330135 -s 0 -d -1 -p cbr -e 512 -c 2 -a 0 -i 4 -k AGT
+ -t 1.204790310 -s 0 -d -1 -p cbr -e 512 -c 2 -a 0 -i 5 -k AGT 
- -t 1.204790310 -s 0 -d -1 -p cbr -e 512 -c 2 -a 0 -i 5 -k AGT
h -t 1.204790310 -s 0 -d -1 -p cbr -e 512 -c 2 -a 0 -i 5 -k AGT
+ -t 1.237235677 -s 2 -d -1 -p cbr -e 512 -c 2 -a 0 -i 6 -k AGT 
- -t 1.237235677 -s 2 -d -1 -p cbr -e 512 -c 2 -a 0 -i 6 -k AGT
h -t 1.237235677 -s 2 -d -1 -p cbr -e 512 -c 2 -a 0 -i 6 -k AGT
+ -t 1.318143583 -s 2 -d -1 -p cbr -e 512 -c 2 -a 0 -i 7 -k AGT 
- -t 1.318143583 -s 2 -d -1 -p cbr -e 512 -c 2 -a 0 -i 7 -k AGT
h -t 1.318143583 -s 2 -d -1 -p cbr -e 512 -c 2 -a 0 -i 7 -k AGT
+ -t 1.318676824 -s 0 -d -1 -p cbr -e 512 -c 2 -a 0 -i 8 -k AGT 
- -t 1.318676824 -s 0 -d -1 -p cbr -e 512 -c 2 -a 0 -i 8 -k AGT
h -t 1.318676824 -s 0 -d -1 -p cbr -e 512 -c 2 -a 0 -i 8 -k AGT
+ -t 1.385091365 -s 0 -d -1 -p cbr -e 512 -c 2 -a 0 -i 9 -k AGT 
- -t 1.385091365 -s 0 -d -1 -p cbr -e 512 -c 2 -a 0 -i 9 -k AGT
h -t 1.385091365 -s 0 -d -1 -p cbr -e 512 -c 2 -a 0 -i 9 -k AGT
+ -t 1.439370821 -s 0 -d -1 -p cbr -e 512 -c 2 -a 0 -i 10 -k AGT 
- -t 1.439370821 -s 0 -d -1 -p cbr -e 512 -c 2 -a 0 -i 10 -k AGT
h -t 1.439370821 -s 0 -d -1 -p cbr -e 512 -c 2 -a 0 -i 10 -k AGT
+ -t 1.451775936 -s 2 -d -1 -p cbr -e 512 -c 2 -a 0 -i 11 -k AGT 
- -t 1.451775936 -s 2 -d -1 -p cbr -e 512 -c 2 -a 0 -i 11 -k AGT
h -t 1.451775936 -s 2 -d -1 -p cbr -e 512 -c 2 -a 0 -i 11 -k AGT
+ -t 1.513156761 -s 2 -d -1 -p cbr -e 512 -c 2 -a 0 -i 12 -k AGT 
- -t 1.513156761 -s 2 -d -1 -p cbr -e 512 -c 2 -a 0 -i 12 -k AGT
h -t 1.513156761 -s 2 -d -1 -p cbr -e 512 -c 2 -a 0 -i 12 -k AGT
+ -t 1.553377587 -s 0 -d -1 -p cbr -e 512 -c 2 -a 0 -i 13 -k AGT 
- -t 1.553377587 -s 0 -d -1 -p cbr -e 512 -c 2 -a 0 -i 13 -k AGT
h -t 1.553377587 -s 0 -d -1 -p cbr -e 512 -c 2 -a 0 -i 13 -k AGT
+ -t 1.645743260 -s 0 -d -1 -p cbr -e 512 -c 2 -a 0 -i 14 -k AGT 
- -t 1.645743260 -s 0 -d -1 -p cbr -e 512 -c 2 -a 0 -i 14 -k AGT
h -t 1.645743260 -s 0 -d -1 -p cbr -e 512 -c 2 -a 0 -i 14 -k AGT
+ -t 1.649129531 -s 2 -d -1 -p cbr -e 512 -c 2 -a 0 -i 15 -k AGT 
- -t 1.649129531 -s 2 -d -1 -p cbr -e 512 -c 2 -a 0 -i 15 -k AGT
h -t 1.649129531 -s 2 -d -1 -p cbr -e 512 -c 2 -a 0 -i 15 -k AGT
+ -t 1.708543416 -s 2 -d -1 -p cbr -e 512 -c 2 -a 0 -i 16 -k AGT 
- -t 1.708543416 -s 2 -d -1 -p cbr -e 512 -c 2 -a 0 -i 16 -k AGT
h -t 1.708543416 -s 2 -d -1 -p cbr -e 512 -c 2 -a 0 -i 16 -k AGT
+ -t 1.713223786 -s 0 -d -1 -p cbr -e 512 -c 2 -a 0 -i 17 -k AGT 
- -t 1.713223786 -s 0 -d -1 -p cbr -e 512 -c 2 -a 0 -i 17 -k AGT
h -t 1.713223786 -s 0 -d -1 -p cbr -e 512 -c 2 -a 0 -i 17 -k AGT
+ -t 1.798097888 -s 0 -d -1 -p cbr -e 512 -c 2 -a 0 -i 18 -k AGT 
- -t 1.798097888 -s 0 -d -1 -p cbr -e 512 -c 2 -a 0 -i 18 -k AGT
h -t 1.798097888 -s 0 -d -1 -p cbr -e 512 -c 2 -a 0 -i 18 -k AGT
+ -t 1.839246272 -s 2 -d -1 -p cbr -e 512 -c 2 -a 0 -i 19 -k AGT 
- -t 1.839246272 -s 2 -d -1 -p cbr -e 512 -c 2 -a 0 -i 19 -k AGT
h -t 1.839246272 -s 2 -d -1 -p cbr -e 512 -c 2 -a 0 -i 19 -k AGT
+ -t 1.873906683 -s 0 -d -1 -p cbr -e 512 -c 2 -a 0 -i 20 -k AGT 
- -t 1.873906683 -s 0 -d -1 -p cbr -e 512 -c 2 -a 0 -i 20 -k AGT
h -t 1.873906683 -s 0 -d -1 -p cbr -e 512 -c 2 -a 0 -i 20 -k AGT
+ -t 1.930114839 -s 2 -d -1 -p cbr -e 512 -c 2 -a 0 -i 21 -k AGT 
- -t 1.930114839 -s 2 -d -1 -p cbr -e 512 -c 2 -a 0 -i 21 -k AGT
h -t 1.930114839 -s 2 -d -1 -p cbr -e 512 -c 2 -a 0 -i 21 -k AGT
+ -t 1.975771563 -s 0 -d -1 -p cbr -e 512 -c 2 -a 0 -i 22 -k AGT 
- -t 1.975771563 -s 0 -d -1 -p cbr -e 512 -c 2 -a 0 -i 22 -k AGT
h -t 1.975771563 -s 0 -d -1 -p cbr -e 512 -c 2 -a 0 -i 22 -k AGT
+ -t 2.026726433 -s 2 -d -1 -p cbr -e 512 -c 2 -a 0 -i 23 -k AGT 
- -t 2.026726433 -s 2 -d -1 -p cbr -e 512 -c 2 -a 0 -i 23 -k AGT
h -t 2.026726433 -s 2 -d -1 -p cbr -e 512 -c 2 -a 0 -i 23 -k AGT
+ -t 2.095002246 -s 0 -d -1 -p cbr -e 512 -c 2 -a 0 -i 24 -k AGT 
- -t 2.095002246 -s 0 -d -1 -p cbr -e 512 -c 2 -a 0 -i 24 -k AGT
h -t 2.095002246 -s 0 -d -1 -p cbr -e 512 -c 2 -a 0 -i 24 -k AGT
+ -t 2.162933161 -s 2 -d -1 -p cbr -e 512 -c 2 -a 0 -i 25 -k AGT 
- -t 2.162933161 -s 2 -d -1 -p cbr -e 512 -c 2 -a 0 -i 25 -k AGT
h -t 2.162933161 -s 2 -d -1 -p cbr -e 512 -c 2 -a 0 -i 25 -k AGT
+ -t 2.228984766 -s 0 -d -1 -p cbr -e 512 -c 2 -a 0 -i 26 -k AGT 
- -t 2.228984766 -s 0 -d -1 -p cbr -e 512 -c 2 -a 0 -i 26 -k AGT
h -t 2.228984766 -s 0 -d -1 -p cbr -e 512 -c 2 -a 0 -i 26 -k AGT
+ -t 2.234649107 -s 2 -d -1 -p cbr -e 512 -c 2 -a 0 -i 27 -k AGT 
- -t 2.234649107 -s 2 -d -1 -p cbr -e 512 -c 2 -a 0 -i 27 -k AGT
h -t 2.234649107 -s 2 -d -1 -p cbr -e 512 -c 2 -a 0 -i 27 -k AGT
+ -t 2.303107329 -s 0 -d -1 -p cbr -e 512 -c 2 -a 0 -i 28 -k AGT 
- -t 2.303107329 -s 0 -d -1 -p cbr -e 512 -c 2 -a 0 -i 28 -k AGT
h -t 2.303107329 -s 0 -d -1 -p cbr -e 512 -c 2 -a 0 -i 28 -k AGT
+ -t 2.369759762 -s 2 -d -1 -p cbr -e 512 -c 2 -a 0 -i 29 -k AGT 
- -t 2.369759762 -s 2 -d -1 -p cbr -e 512 -c 2 -a 0 -i 29 -k AGT
h -t 2.369759762 -s 2 -d -1 -p cbr -e 512 -c 2 -a 0 -i 29 -k AGT
+ -t 2.420842223 -s 0 -d -1 -p cbr -e 512 -c 2 -a 0 -i 30 -k AGT 
- -t 2.420842223 -s 0 -d -1 -p cbr -e 512 -c 2 -a 0 -i 30 -k AGT
h -t 2.420842223 -s 0 -d -1 -p cbr -e 512 -c 2 -a 0 -i 30 -k AGT
+ -t 2.495982951 -s 2 -d -1 -p cbr -e 512 -c 2 -a 0 -i 31 -k AGT 
- -t 2.495982951 -s 2 -d -1 -p cbr -e 512 -c 2 -a 0 -i 31 -k AGT
h -t 2.495982951 -s 2 -d -1 -p cbr -e 512 -c 2 -a 0 -i 31 -k AGT
+ -t 2.561336770 -s 0 -d -1 -p cbr -e 512 -c 2 -a 0 -i 32 -k AGT 
- -t 2.561336770 -s 0 -d -1 -p cbr -e 512 -c 2 -a 0 -i 32 -k AGT
h -t 2.561336770 -s 0 -d -1 -p cbr -e 512 -c 2 -a 0 -i 32 -k AGT
+ -t 2.586534859 -s 2 -d -1 -p cbr -e 512 -c 2 -a 0 -i 33 -k AGT 
- -t 2.586534859 -s 2 -d -1 -p cbr -e 512 -c 2 -a 0 -i 33 -k AGT
h -t 2.586534859 -s 2 -d -1 -p cbr -e 512 -c 2 -a 0 -i 33 -k AGT
+ -t 2.622256617 -s 0 -d -1 -p cbr -e 512 -c 2 -a 0 -i 34 -k AGT 
- -t 2.622256617 -s 0 -d -1 -p cbr -e 512 -c 2 -a 0 -i 34 -k AGT
h -t 2.622256617 -s 0 -d -1 -p cbr -e 512 -c 2 -a 0 -i 34 -k AGT
+ -t 2.676955612 -s 2 -d -1 -p cbr -e 512 -c 2 -a 0 -i 35 -k AGT 
- -t 2.676955612 -s 2 -d -1 -p cbr -e 512 -c 2 -a 0 -i 35 -k AGT
h -t 2.676955612 -s 2 -d -1 -p cbr -e 512 -c 2 -a 0 -i 35 -k AGT
+ -t 2.690993142 -s 0 -d -1 -p cbr -e 512 -c 2 -a 0 -i 36 -k AGT 
- -t 2.690993142 -s 0 -d -1 -p cbr -e 512 -c 2 -a 0 -i 36 -k AGT
h -t 2.690993142 -s 0 -d -1 -p cbr -e 512 -c 2 -a 0 -i 36 -k AGT
+ -t 2.815699967 -s 2 -d -1 -p cbr -e 512 -c 2 -a 0 -i 37 -k AGT 
- -t 2.815699967 -s 2 -d -1 -p cbr -e 512 -c 2 -a 0 -i 37 -k AGT
h -t 2.815699967 -s 2 -d -1 -p cbr -e 512 -c 2 -a 0 -i 37 -k AGT
+ -t 2.815699967 -s 2 -d -1 -p AODV -e 48 -c 2 -a 0 -i 0 -k RTR 
- -t 2.815699967 -s 2 -d -1 -p AODV -e 48 -c 2 -a 0 -i 0 -k RTR
h -t 2.815699967 -s 2 -d -1 -p AODV -e 48 -c 2 -a 0 -i 0 -k RTR
+ -t 2.816354967 -s 2 -d -1 -p AODV -e 106 -c 2 -a 0 -i 0 -k MAC 
- -t 2.816354967 -s 2 -d -1 -p AODV -e 106 -c 2 -a 0 -i 0 -k MAC
h -t 2.816354967 -s 2 -d -1 -p AODV -e 106 -c 2 -a 0 -i 0 -k MAC
r -t 2.817203967 -s 1 -d -1 -p AODV -e 48 -c 2 -a 0 -i 0 -k MAC
r -t 2.817228967 -s 1 -d -1 -p AODV -e 48 -c 2 -a 0 -i 0 -k RTR
+ -t 2.817228967 -s 1 -d 2 -p AODV -e 44 -c 2 -a 0 -i 0 -k RTR 
- -t 2.817228967 -s 1 -d 2 -p AODV -e 44 -c 2 -a 0 -i 0 -k RTR
h -t 2.817228967 -s 1 -d 2 -p AODV -e 44 -c 2 -a 0 -i 0 -k RTR
+ -t 2.817403967 -s 1 -d -1 -p ARP -e 86 -c 2 -a 0 -i 0 -k MAC 
- -t 2.817403967 -s 1 -d -1 -p ARP -e 86 -c 2 -a 0 -i 0 -k MAC
h -t 2.817403967 -s 1 -d -1 -p ARP -e 86 -c 2 -a 0 -i 0 -k MAC
r -t 2.818092967 -s 0 -d -1 -p ARP -e 28 -c 2 -a 0 -i 0 -k MAC
r -t 2.818092967 -s 2 -d -1 -p ARP -e 28 -c 2 -a 0 -i 0 -k MAC
+ -t 2.818647967 -s 2 -d -1 -p RTS -e 44 -c 2 -a 0 -i 0 -k MAC 
- -t 2.818647967 -s 2 -d -1 -p RTS -e 44 -c 2 -a 0 -i 0 -k MAC
h -t 2.818647967 -s 2 -d -1 -p RTS -e 44 -c 2 -a 0 -i 0 -k MAC
r -t 2.819000967 -s 1 -d -1 -p RTS -e 44 -c 2 -a 0 -i 0 -k MAC
+ -t 2.819010967 -s 1 -d -1 -p CTS -e 38 -c 2 -a 0 -i 0 -k MAC 
- -t 2.819010967 -s 1 -d -1 -p CTS -e 38 -c 2 -a 0 -i 0 -k MAC
h -t 2.819010967 -s 1 -d -1 -p CTS -e 38 -c 2 -a 0 -i 0 -k MAC
r -t 2.819315967 -s 2 -d -1 -p CTS -e 38 -c 2 -a 0 -i 0 -k MAC
+ -t 2.819325967 -s 2 -d -1 -p ARP -e 86 -c 2 -a 0 -i 0 -k MAC 
- -t 2.819325967 -s 2 -d -1 -p ARP -e 86 -c 2 -a 0 -i 0 -k MAC
h -t 2.819325967 -s 2 -d -1 -p ARP -e 86 -c 2 -a 0 -i 0 -k MAC
r -t 2.820014967 -s 1 -d -1 -p ARP -e 28 -c 2 -a 0 -i 0 -k MAC
+ -t 2.820024967 -s 1 -d -1 -p ACK -e 38 -c 2 -a 0 -i 0 -k MAC 
- -t 2.820024967 -s 1 -d -1 -p ACK -e 38 -c 2 -a 0 -i 0 -k MAC
h -t 2.820024967 -s 1 -d -1 -p ACK -e 38 -c 2 -a 0 -i 0 -k MAC
r -t 2.820329967 -s 2 -d -1 -p ACK -e 38 -c 2 -a 0 -i 0 -k MAC
+ -t 2.820658967 -s 1 -d -1 -p RTS -e 44 -c 2 -a 0 -i 0 -k MAC 
- -t 2.820658967 -s 1 -d -1 -p RTS -e 44 -c 2 -a 0 -i 0 -k MAC
h -t 2.820658967 -s 1 -d -1 -p RTS -e 44 -c 2 -a 0 -i 0 -k MAC
r -t 2.821011967 -s 2 -d -1 -p RTS -e 44 -c 2 -a 0 -i 0 -k MAC
+ -t 2.821021967 -s 2 -d -1 -p CTS -e 38 -c 2 -a 0 -i 0 -k MAC 
- -t 2.821021967 -s 2 -d -1 -p CTS -e 38 -c 2 -a 0 -i 0 -k MAC
h -t 2.821021967 -s 2 -d -1 -p CTS -e 38 -c 2 -a 0 -i 0 -k MAC
r -t 2.821326967 -s 1 -d -1 -p CTS -e 38 -c 2 -a 0 -i 0 -k MAC
+ -t 2.821336967 -s 1 -d 2 -p AODV -e 102 -c 2 -a 0 -i 0 -k MAC 
- -t 2.821336967 -s 1 -d 2 -p AODV -e 102 -c 2 -a 0 -i 0 -k MAC
h -t 2.821336967 -s 1 -d 2 -p AODV -e 102 -c 2 -a 0 -i 0 -k MAC
r -t 2.822153967 -s 2 -d 2 -p AODV -e 44 -c 2 -a 0 -i 0 -k MAC
+ -t 2.822163967 -s 2 -d -1 -p ACK -e 38 -c 2 -a 0 -i 0 -k MAC 
- -t 2.822163967 -s 2 -d -1 -p ACK -e 38 -c 2 -a 0 -i 0 -k MAC
h -t 2.822163967 -s 2 -d -1 -p ACK -e 38 -c 2 -a 0 -i 0 -k MAC
+ -t 2.822178967 -s 2 -d 1 -p cbr -e 532 -c 2 -a 0 -i 1 -k RTR 
- -t 2.822178967 -s 2 -d 1 -p cbr -e 532 -c 2 -a 0 -i 1 -k RTR
h -t 2.822178967 -s 2 -d 1 -p cbr -e 532 -c 2 -a 0 -i 1 -k RTR
r -t 2.822468967 -s 1 -d -1 -p ACK -e 38 -c 2 -a 0 -i 0 -k MAC
+ -t 2.822797967 -s 2 -d -1 -p RTS -e 44 -c 2 -a 0 -i 0 -k MAC 
- -t 2.822797967 -s 2 -d -1 -p RTS -e 44 -c 2 -a 0 -i 0 -k MAC
h -t 2.822797967 -s 2 -d -1 -p RTS -e 44 -c 2 -a 0 -i 0 -k MAC
r -t 2.823150967 -s 1 -d -1 -p RTS -e 44 -c 2 -a 0 -i 0 -k MAC
+ -t 2.823160967 -s 1 -d -1 -p CTS -e 38 -c 2 -a 0 -i 0 -k MAC 
- -t 2.823160967 -s 1 -d -1 -p CTS -e 38 -c 2 -a 0 -i 0 -k MAC
h -t 2.823160967 -s 1 -d -1 -p CTS -e 38 -c 2 -a 0 -i 0 -k MAC
r -t 2.823465967 -s 2 -d -1 -p CTS -e 38 -c 2 -a 0 -i 0 -k MAC
+ -t 2.823475967 -s 2 -d 1 -p cbr -e 590 -c 2 -a 0 -i 1 -k MAC 
- -t 2.823475967 -s 2 -d 1 -p cbr -e 590 -c 2 -a 0 -i 1 -k MAC
h -t 2.823475967 -s 2 -d 1 -p cbr -e 590 -c 2 -a 0 -i 1 -k MAC
r -t 2.828196967 -s 1 -d 1 -p cbr -e 532 -c 2 -a 0 -i 1 -k MAC
+ -t 2.828206967 -s 1 -d -1 -p ACK -e 38 -c 2 -a 0 -i 0 -k MAC 
- -t 2.828206967 -s 1 -d -1 -p ACK -e 38 -c 2 -a 0 -i 0 -k MAC
h -t 2.828206967 -s 1 -d -1 -p ACK -e 38 -c 2 -a 0 -i 0 -k MAC
r -t 2.828221967 -s 1 -d 1 -p cbr -e 532 -c 2 -a 0 -i 1 -k AGT
r -t 2.828511967 -s 2 -d -1 -p ACK -e 38 -c 2 -a 0 -i 0 -k MAC
+ -t 2.832178967 -s 2 -d 1 -p cbr -e 532 -c 2 -a 0 -i 3 -k RTR 
- -t 2.832178967 -s 2 -d 1 -p cbr -e 532 -c 2 -a 0 -i 3 -k RTR
h -t 2.832178967 -s 2 -d 1 -p cbr -e 532 -c 2 -a 0 -i 3 -k RTR
+ -t 2.832473967 -s 2 -d -1 -p RTS -e 44 -c 2 -a 0 -i 0 -k MAC 
- -t 2.832473967 -s 2 -d -1 -p RTS -e 44 -c 2 -a 0 -i 0 -k MAC
h -t 2.832473967 -s 2 -d -1 -p RTS -e 44 -c 2 -a 0 -i 0 -k MAC
r -t 2.832826967 -s 1 -d -1 -p RTS -e 44 -c 2 -a 0 -i 0 -k MAC
+ -t 2.832836967 -s 1 -d -1 -p CTS -e 38 -c 2 -a 0 -i 0 -k MAC 
- -t 2.832836967 -s 1 -d -1 -p CTS -e 38 -c 2 -a 0 -i 0 -k MAC
h -t 2.832836967 -s 1 -d -1 -p CTS -e 38 -c 2 -a 0 -i 0 -k MAC
r -t 2.833141967 -s 2 -d -1 -p CTS -e 38 -c 2 -a 0 -i 0 -k MAC
+ -t 2.833151967 -s 2 -d 1 -p cbr -e 590 -c 2 -a 0 -i 3 -k MAC 
- -t 2.833151967 -s 2 -d 1 -p cbr -e 590 -c 2 -a 0 -i 3 -k MAC
h -t 2.833151967 -s 2 -d 1 -p cbr -e 590 -c 2 -a 0 -i 3 -k MAC
+ -t 2.835619637 -s 0 -d -1 -p cbr -e 512 -c 2 -a 0 -i 38 -k AGT 
- -t 2.835619637 -s 0 -d -1 -p cbr -e 512 -c 2 -a 0 -i 38 -k AGT
h -t 2.835619637 -s 0 -d -1 -p cbr -e 512 -c 2 -a 0 -i 38 -k AGT
+ -t 2.835619637 -s 0 -d -1 -p AODV -e 48 -c 2 -a 0 -i 0 -k RTR 
- -t 2.835619637 -s 0 -d -1 -p AODV -e 48 -c 2 -a 0 -i 0 -k RTR
h -t 2.835619637 -s 0 -d -1 -p AODV -e 48 -c 2 -a 0 -i 0 -k RTR
r -t 2.837872967 -s 1 -d 1 -p cbr -e 532 -c 2 -a 0 -i 3 -k MAC
+ -t 2.837882967 -s 1 -d -1 -p ACK -e 38 -c 2 -a 0 -i 0 -k MAC 
- -t 2.837882967 -s 1 -d -1 -p ACK -e 38 -c 2 -a 0 -i 0 -k MAC
h -t 2.837882967 -s 1 -d -1 -p ACK -e 38 -c 2 -a 0 -i 0 -k MAC
r -t 2.837897967 -s 1 -d 1 -p cbr -e 532 -c 2 -a 0 -i 3 -k AGT
r -t 2.838187967 -s 2 -d -1 -p ACK -e 38 -c 2 -a 0 -i 0 -k MAC
+ -t 2.838397967 -s 0 -d -1 -p AODV -e 106 -c 2 -a 0 -i 0 -k MAC 
- -t 2.838397967 -s 0 -d -1 -p AODV -e 106 -c 2 -a 0 -i 0 -k MAC
h -t 2.838397967 -s 0 -d -1 -p AODV -e 106 -c 2 -a 0 -i 0 -k MAC
r -t 2.839246967 -s 1 -d -1 -p AODV -e 48 -c 2 -a 0 -i 0 -k MAC
r -t 2.839271967 -s 1 -d -1 -p AODV -e 48 -c 2 -a 0 -i 0 -k RTR
+ -t 2.839271967 -s 1 -d 0 -p AODV -e 44 -c 2 -a 0 -i 0 -k RTR 
- -t 2.839271967 -s 1 -d 0 -p AODV -e 44 -c 2 -a 0 -i 0 -k RTR
h -t 2.839271967 -s 1 -d 0 -p AODV -e 44 -c 2 -a 0 -i 0 -k RTR
+ -t 2.839626967 -s 1 -d -1 -p ARP -e 86 -c 2 -a 0 -i 0 -k MAC 
- -t 2.839626967 -s 1 -d -1 -p ARP -e 86 -c 2 -a 0 -i 0 -k MAC
h -t 2.839626967 -s 1 -d -1 -p ARP -e 86 -c 2 -a 0 -i 0 -k MAC
r -t 2.840315967 -s 0 -d -1 -p ARP -e 28 -c 2 -a 0 -i 0 -k MAC
r -t 2.840315967 -s 2 -d -1 -p ARP -e 28 -c 2 -a 0 -i 0 -k MAC
+ -t 2.840610967 -s 0 -d -1 -p RTS -e 44 -c 2 -a 0 -i 0 -k MAC 
- -t 2.840610967 -s 0 -d -1 -p RTS -e 44 -c 2 -a 0 -i 0 -k MAC
h -t 2.840610967 -s 0 -d -1 -p RTS -e 44 -c 2 -a 0 -i 0 -k MAC
r -t 2.840963967 -s 1 -d -1 -p RTS -e 44 -c 2 -a 0 -i 0 -k MAC
+ -t 2.840973967 -s 1 -d -1 -p CTS -e 38 -c 2 -a 0 -i 0 -k MAC 
- -t 2.840973967 -s 1 -d -1 -p CTS -e 38 -c 2 -a 0 -i 0 -k MAC
h -t 2.840973967 -s 1 -d -1 -p CTS -e 38 -c 2 -a 0 -i 0 -k MAC
r -t 2.841278967 -s 0 -d -1 -p CTS -e 38 -c 2 -a 0 -i 0 -k MAC
+ -t 2.841288967 -s 0 -d -1 -p ARP -e 86 -c 2 -a 0 -i 0 -k MAC 
- -t 2.841288967 -s 0 -d -1 -p ARP -e 86 -c 2 -a 0 -i 0 -k MAC
h -t 2.841288967 -s 0 -d -1 -p ARP -e 86 -c 2 -a 0 -i 0 -k MAC
r -t 2.841977967 -s 1 -d -1 -p ARP -e 28 -c 2 -a 0 -i 0 -k MAC
+ -t 2.841987967 -s 1 -d -1 -p ACK -e 38 -c 2 -a 0 -i 0 -k MAC 
- -t 2.841987967 -s 1 -d -1 -p ACK -e 38 -c 2 -a 0 -i 0 -k MAC
h -t 2.841987967 -s 1 -d -1 -p ACK -e 38 -c 2 -a 0 -i 0 -k MAC
+ -t 2.842178967 -s 2 -d 1 -p cbr -e 532 -c 2 -a 0 -i 6 -k RTR 
- -t 2.842178967 -s 2 -d 1 -p cbr -e 532 -c 2 -a 0 -i 6 -k RTR
h -t 2.842178967 -s 2 -d 1 -p cbr -e 532 -c 2 -a 0 -i 6 -k RTR
r -t 2.842292967 -s 0 -d -1 -p ACK -e 38 -c 2 -a 0 -i 0 -k MAC
+ -t 2.842621967 -s 1 -d -1 -p RTS -e 44 -c 2 -a 0 -i 0 -k MAC 
- -t 2.842621967 -s 1 -d -1 -p RTS -e 44 -c 2 -a 0 -i 0 -k MAC
h -t 2.842621967 -s 1 -d -1 -p RTS -e 44 -c 2 -a 0 -i 0 -k MAC
r -t 2.842974967 -s 0 -d -1 -p RTS -e 44 -c 2 -a 0 -i 0 -k MAC
+ -t 2.842984967 -s 0 -d -1 -p CTS -e 38 -c 2 -a 0 -i 0 -k MAC 
- -t 2.842984967 -s 0 -d -1 -p CTS -e 38 -c 2 -a 0 -i 0 -k MAC
h -t 2.842984967 -s 0 -d -1 -p CTS -e 38 -c 2 -a 0 -i 0 -k MAC
r -t 2.843289967 -s 1 -d -1 -p CTS -e 38 -c 2 -a 0 -i 0 -k MAC
+ -t 2.843299967 -s 1 -d 0 -p AODV -e 102 -c 2 -a 0 -i 0 -k MAC 
- -t 2.843299967 -s 1 -d 0 -p AODV -e 102 -c 2 -a 0 -i 0 -k MAC
h -t 2.843299967 -s 1 -d 0 -p AODV -e 102 -c 2 -a 0 -i 0 -k MAC
r -t 2.844116967 -s 0 -d 0 -p AODV -e 44 -c 2 -a 0 -i 0 -k MAC
+ -t 2.844126967 -s 0 -d -1 -p ACK -e 38 -c 2 -a 0 -i 0 -k MAC 
- -t 2.844126967 -s 0 -d -1 -p ACK -e 38 -c 2 -a 0 -i 0 -k MAC
h -t 2.844126967 -s 0 -d -1 -p ACK -e 38 -c 2 -a 0 -i 0 -k MAC
+ -t 2.844141967 -s 0 -d 1 -p cbr -e 532 -c 2 -a 0 -i 0 -k RTR 
- -t 2.844141967 -s 0 -d 1 -p cbr -e 532 -c 2 -a 0 -i 0 -k RTR
h -t 2.844141967 -s 0 -d 1 -p cbr -e 532 -c 2 -a 0 -i 0 -k RTR
r -t 2.844431967 -s 1 -d -1 -p ACK -e 38 -c 2 -a 0 -i 0 -k MAC
+ -t 2.844500967 -s 2 -d -1 -p RTS -e 44 -c 2 -a 0 -i 0 -k MAC 
- -t 2.844500967 -s 2 -d -1 -p RTS -e 44 -c 2 -a 0 -i 0 -k MAC
h -t 2.844500967 -s 2 -d -1 -p RTS -e 44 -c 2 -a 0 -i 0 -k MAC
r -t 2.844853967 -s 1 -d -1 -p RTS -e 44 -c 2 -a 0 -i 0 -k MAC
+ -t 2.844863967 -s 1 -d -1 -p CTS -e 38 -c 2 -a 0 -i 0 -k MAC 
- -t 2.844863967 -s 1 -d -1 -p CTS -e 38 -c 2 -a 0 -i 0 -k MAC
h -t 2.844863967 -s 1 -d -1 -p CTS -e 38 -c 2 -a 0 -i 0 -k MAC
r -t 2.845168967 -s 2 -d -1 -p CTS -e 38 -c 2 -a 0 -i 0 -k MAC
+ -t 2.845178967 -s 2 -d 1 -p cbr -e 590 -c 2 -a 0 -i 6 -k MAC 
- -t 2.845178967 -s 2 -d 1 -p cbr -e 590 -c 2 -a 0 -i 6 -k MAC
h -t 2.845178967 -s 2 -d 1 -p cbr -e 590 -c 2 -a 0 -i 6 -k MAC
r -t 2.849899967 -s 1 -d 1 -p cbr -e 532 -c 2 -a 0 -i 6 -k MAC
+ -t 2.849909967 -s 1 -d -1 -p ACK -e 38 -c 2 -a 0 -i 0 -k MAC 
- -t 2.849909967 -s 1 -d -1 -p ACK -e 38 -c 2 -a 0 -i 0 -k MAC
h -t 2.849909967 -s 1 -d -1 -p ACK -e 38 -c 2 -a 0 -i 0 -k MAC
r -t 2.849924967 -s 1 -d 1 -p cbr -e 532 -c 2 -a 0 -i 6 -k AGT
r -t 2.850214967 -s 2 -d -1 -p ACK -e 38 -c 2 -a 0 -i 0 -k MAC
+ -t 2.850364967 -s 0 -d -1 -p RTS -e 44 -c 2 -a 0 -i 0 -k MAC 
- -t 2.850364967 -s 0 -d -1 -p RTS -e 44 -c 2 -a 0 -i 0 -k MAC
h -t 2.850364967 -s 0 -d -1 -p RTS -e 44 -c 2 -a 0 -i 0 -k MAC
r -t 2.850717967 -s 1 -d -1 -p RTS -e 44 -c 2 -a 0 -i 0 -k MAC
+ -t 2.850727967 -s 1 -d -1 -p CTS -e 38 -c 2 -a 0 -i 0 -k MAC 
- -t 2.850727967 -s 1 -d -1 -p CTS -e 38 -c 2 -a 0 -i 0 -k MAC
h -t 2.850727967 -s 1 -d -1 -p CTS -e 38 -c 2 -a 0 -i 0 -k MAC
r -t 2.851032967 -s 0 -d -1 -p CTS -e 38 -c 2 -a 0 -i 0 -k MAC
+ -t 2.851042967 -s 0 -d 1 -p cbr -e 590 -c 2 -a 0 -i 0 -k MAC 
- -t 2.851042967 -s 0 -d 1 -p cbr -e 590 -c 2 -a 0 -i 0 -k MAC
h -t 2.851042967 -s 0 -d 1 -p cbr -e 590 -c 2 -a 0 -i 0 -k MAC
+ -t 2.852178967 -s 2 -d 1 -p cbr -e 532 -c 2 -a 0 -i 7 -k RTR 
- -t 2.852178967 -s 2 -d 1 -p cbr -e 532 -c 2 -a 0 -i 7 -k RTR
h -t 2.852178967 -s 2 -d 1 -p cbr -e 532 -c 2 -a 0 -i 7 -k RTR
+ -t 2.854141967 -s 0 -d 1 -p cbr -e 532 -c 2 -a 0 -i 2 -k RTR 
- -t 2.854141967 -s 0 -d 1 -p cbr -e 532 -c 2 -a 0 -i 2 -k RTR
h -t 2.854141967 -s 0 -d 1 -p cbr -e 532 -c 2 -a 0 -i 2 -k RTR
r -t 2.855763967 -s 1 -d 1 -p cbr -e 532 -c 2 -a 0 -i 0 -k MAC
+ -t 2.855773967 -s 1 -d -1 -p ACK -e 38 -c 2 -a 0 -i 0 -k MAC 
- -t 2.855773967 -s 1 -d -1 -p ACK -e 38 -c 2 -a 0 -i 0 -k MAC
h -t 2.855773967 -s 1 -d -1 -p ACK -e 38 -c 2 -a 0 -i 0 -k MAC
r -t 2.855788967 -s 1 -d 1 -p cbr -e 532 -c 2 -a 0 -i 0 -k AGT
r -t 2.856078967 -s 0 -d -1 -p ACK -e 38 -c 2 -a 0 -i 0 -k MAC
+ -t 2.856168967 -s 0 -d -1 -p RTS -e 44 -c 2 -a 0 -i 0 -k MAC 
- -t 2.856168967 -s 0 -d -1 -p RTS -e 44 -c 2 -a 0 -i 0 -k MAC
h -t 2.856168967 -s 0 -d -1 -p RTS -e 44 -c 2 -a 0 -i 0 -k MAC
+ -t 2.856428967 -s 2 -d -1 -p RTS -e 44 -c 2 -a 0 -i 0 -k MAC 
- -t 2.856428967 -s 2 -d -1 -p RTS -e 44 -c 2 -a 0 -i 0 -k MAC
h -t 2.856428967 -s 2 -d -1 -p RTS -e 44 -c 2 -a 0 -i 0 -k MAC
d -t 2.856429967 -s 1 -d -1 -p RTS -e 44 -c 2 -a 0 -i 0 -k MAC
d -t 2.856781967 -s 1 -d -1 -p RTS -e 44 -c 2 -a 0 -i 0 -k MAC
+ -t 2.857488967 -s 0 -d -1 -p RTS -e 44 -c 2 -a 0 -i 0 -k MAC 
- -t 2.857488967 -s 0 -d -1 -p RTS -e 44 -c 2 -a 0 -i 0 -k MAC
h -t 2.857488967 -s 0 -d -1 -p RTS -e 44 -c 2 -a 0 -i 0 -k MAC
r -t 2.857841967 -s 1 -d -1 -p RTS -e 44 -c 2 -a 0 -i 0 -k MAC
+ -t 2.857851967 -s 1 -d -1 -p CTS -e 38 -c 2 -a 0 -i 0 -k MAC 
- -t 2.857851967 -s 1 -d -1 -p CTS -e 38 -c 2 -a 0 -i 0 -k MAC
h -t 2.857851967 -s 1 -d -1 -p CTS -e 38 -c 2 -a 0 -i 0 -k MAC
r -t 2.858156967 -s 0 -d -1 -p CTS -e 38 -c 2 -a 0 -i 0 -k MAC
+ -t 2.858166967 -s 0 -d 1 -p cbr -e 590 -c 2 -a 0 -i 2 -k MAC 
- -t 2.858166967 -s 0 -d 1 -p cbr -e 590 -c 2 -a 0 -i 2 -k MAC
h -t 2.858166967 -s 0 -d 1 -p cbr -e 590 -c 2 -a 0 -i 2 -k MAC
+ -t 2.862178967 -s 2 -d 1 -p cbr -e 532 -c 2 -a 0 -i 11 -k RTR 
- -t 2.862178967 -s 2 -d 1 -p cbr -e 532 -c 2 -a 0 -i 11 -k RTR
h -t 2.862178967 -s 2 -d 1 -p cbr -e 532 -c 2 -a 0 -i 11 -k RTR
r -t 2.862887967 -s 1 -d 1 -p cbr -e 532 -c 2 -a 0 -i 2 -k MAC
+ -t 2.862897967 -s 1 -d -1 -p ACK -e 38 -c 2 -a 0 -i 0 -k MAC 
- -t 2.862897967 -s 1 -d -1 -p ACK -e 38 -c 2 -a 0 -i 0 -k MAC
h -t 2.862897967 -s 1 -d -1 -p ACK -e 38 -c 2 -a 0 -i 0 -k MAC
r -t 2.862912967 -s 1 -d 1 -p cbr -e 532 -c 2 -a 0 -i 2 -k AGT
r -t 2.863202967 -s 0 -d -1 -p ACK -e 38 -c 2 -a 0 -i 0 -k MAC
+ -t 2.863672967 -s 2 -d -1 -p RTS -e 44 -c 2 -a 0 -i 0 -k MAC 
- -t 2.863672967 -s 2 -d -1 -p RTS -e 44 -c 2 -a 0 -i 0 -k MAC
h -t 2.863672967 -s 2 -d -1 -p RTS -e 44 -c 2 -a 0 -i 0 -k MAC
r -t 2.864025967 -s 1 -d -1 -p RTS -e 44 -c 2 -a 0 -i 0 -k MAC
+ -t 2.864035967 -s 1 -d -1 -p CTS -e 38 -c 2 -a 0 -i 0 -k MAC 
- -t 2.864035967 -s 1 -d -1 -p CTS -e 38 -c 2 -a 0 -i 0 -k MAC
h -t 2.864035967 -s 1 -d -1 -p CTS -e 38 -c 2 -a 0 -i 0 -k MAC
+ -t 2.864141967 -s 0 -d 1 -p cbr -e 532 -c 2 -a 0 -i 4 -k RTR 
- -t 2.864141967 -s 0 -d 1 -p cbr -e 532 -c 2 -a 0 -i 4 -k RTR
h -t 2.864141967 -s 0 -d 1 -p cbr -e 532 -c 2 -a 0 -i 4 -k RTR
r -t 2.864340967 -s 2 -d -1 -p CTS -e 38 -c 2 -a 0 -i 0 -k MAC
+ -t 2.864350967 -s 2 -d 1 -p cbr -e 590 -c 2 -a 0 -i 7 -k MAC 
- -t 2.864350967 -s 2 -d 1 -p cbr -e 590 -c 2 -a 0 -i 7 -k MAC
h -t 2.864350967 -s 2 -d 1 -p cbr -e 590 -c 2 -a 0 -i 7 -k MAC
r -t 2.869071967 -s 1 -d 1 -p cbr -e 532 -c 2 -a 0 -i 7 -k MAC
+ -t 2.869081967 -s 1 -d -1 -p ACK -e 38 -c 2 -a 0 -i 0 -k MAC 
- -t 2.869081967 -s 1 -d -1 -p ACK -e 38 -c 2 -a 0 -i 0 -k MAC
h -t 2.869081967 -s 1 -d -1 -p ACK -e 38 -c 2 -a 0 -i 0 -k MAC
r -t 2.869096967 -s 1 -d 1 -p cbr -e 532 -c 2 -a 0 -i 7 -k AGT
r -t 2.869386967 -s 2 -d -1 -p ACK -e 38 -c 2 -a 0 -i 0 -k MAC
+ -t 2.869516967 -s 2 -d -1 -p RTS -e 44 -c 2 -a 0 -i 0 -k MAC 
- -t 2.869516967 -s 2 -d -1 -p RTS -e 44 -c 2 -a 0 -i 0 -k MAC
h -t 2.869516967 -s 2 -d -1 -p RTS -e 44 -c 2 -a 0 -i 0 -k MAC
+ -t 2.869536967 -s 0 -d -1 -p RTS -e 44 -c 2 -a 0 -i 0 -k MAC 
- -t 2.869536967 -s 0 -d -1 -p RTS -e 44 -c 2 -a 0 -i 0 -k MAC
h -t 2.869536967 -s 0 -d -1 -p RTS -e 44 -c 2 -a 0 -i 0 -k MAC
d -t 2.869537967 -s 1 -d -1 -p RTS -e 44 -c 2 -a 0 -i 0 -k MAC
d -t 2.869889967 -s 1 -d -1 -p RTS -e 44 -c 2 -a 0 -i 0 -k MAC
+ -t 2.870316967 -s 2 -d -1 -p RTS -e 44 -c 2 -a 0 -i 0 -k MAC 
- -t 2.870316967 -s 2 -d -1 -p RTS -e 44 -c 2 -a 0 -i 0 -k MAC
h -t 2.870316967 -s 2 -d -1 -p RTS -e 44 -c 2 -a 0 -i 0 -k MAC
+ -t 2.870616967 -s 0 -d -1 -p RTS -e 44 -c 2 -a 0 -i 0 -k MAC 
- -t 2.870616967 -s 0 -d -1 -p RTS -e 44 -c 2 -a 0 -i 0 -k MAC
h -t 2.870616967 -s 0 -d -1 -p RTS -e 44 -c 2 -a 0 -i 0 -k MAC
d -t 2.870617967 -s 1 -d -1 -p RTS -e 44 -c 2 -a 0 -i 0 -k MAC
d -t 2.870969967 -s 1 -d -1 -p RTS -e 44 -c 2 -a 0 -i 0 -k MAC
+ -t 2.872176967 -s 0 -d -1 -p RTS -e 44 -c 2 -a 0 -i 0 -k MAC 
- -t 2.872176967 -s 0 -d -1 -p RTS -e 44 -c 2 -a 0 -i 0 -k MAC
h -t 2.872176967 -s 0 -d -1 -p RTS -e 44 -c 2 -a 0 -i 0 -k MAC
+ -t 2.872178967 -s 2 -d 1 -p cbr -e 532 -c 2 -a 0 -i 12 -k RTR 
- -t 2.872178967 -s 2 -d 1 -p cbr -e 532 -c 2 -a 0 -i 12 -k RTR
h -t 2.872178967 -s 2 -d 1 -p cbr -e 532 -c 2 -a 0 -i 12 -k RTR
r -t 2.872529967 -s 1 -d -1 -p RTS -e 44 -c 2 -a 0 -i 0 -k MAC
+ -t 2.872539967 -s 1 -d -1 -p CTS -e 38 -c 2 -a 0 -i 0 -k MAC 
- -t 2.872539967 -s 1 -d -1 -p CTS -e 38 -c 2 -a 0 -i 0 -k MAC
h -t 2.872539967 -s 1 -d -1 -p CTS -e 38 -c 2 -a 0 -i 0 -k MAC
r -t 2.872844967 -s 0 -d -1 -p CTS -e 38 -c 2 -a 0 -i 0 -k MAC
+ -t 2.872854967 -s 0 -d 1 -p cbr -e 590 -c 2 -a 0 -i 4 -k MAC 
- -t 2.872854967 -s 0 -d 1 -p cbr -e 590 -c 2 -a 0 -i 4 -k MAC
h -t 2.872854967 -s 0 -d 1 -p cbr -e 590 -c 2 -a 0 -i 4 -k MAC
+ -t 2.874141967 -s 0 -d 1 -p cbr -e 532 -c 2 -a 0 -i 5 -k RTR 
- -t 2.874141967 -s 0 -d 1 -p cbr -e 532 -c 2 -a 0 -i 5 -k RTR
h -t 2.874141967 -s 0 -d 1 -p cbr -e 532 -c 2 -a 0 -i 5 -k RTR
r -t 2.877575967 -s 1 -d 1 -p cbr -e 532 -c 2 -a 0 -i 4 -k MAC
+ -t 2.877585967 -s 1 -d -1 -p ACK -e 38 -c 2 -a 0 -i 0 -k MAC 
- -t 2.877585967 -s 1 -d -1 -p ACK -e 38 -c 2 -a 0 -i 0 -k MAC
h -t 2.877585967 -s 1 -d -1 -p ACK -e 38 -c 2 -a 0 -i 0 -k MAC
r -t 2.877600967 -s 1 -d 1 -p cbr -e 532 -c 2 -a 0 -i 4 -k AGT
r -t 2.877890967 -s 0 -d -1 -p ACK -e 38 -c 2 -a 0 -i 0 -k MAC
+ -t 2.878360967 -s 2 -d -1 -p RTS -e 44 -c 2 -a 0 -i 0 -k MAC 
- -t 2.878360967 -s 2 -d -1 -p RTS -e 44 -c 2 -a 0 -i 0 -k MAC
h -t 2.878360967 -s 2 -d -1 -p RTS -e 44 -c 2 -a 0 -i 0 -k MAC
+ -t 2.878540967 -s 0 -d -1 -p RTS -e 44 -c 2 -a 0 -i 0 -k MAC 
- -t 2.878540967 -s 0 -d -1 -p RTS -e 44 -c 2 -a 0 -i 0 -k MAC
h -t 2.878540967 -s 0 -d -1 -p RTS -e 44 -c 2 -a 0 -i 0 -k MAC
d -t 2.878541967 -s 1 -d -1 -p RTS -e 44 -c 2 -a 0 -i 0 -k MAC
d -t 2.878893967 -s 1 -d -1 -p RTS -e 44 -c 2 -a 0 -i 0 -k MAC
+ -t 2.879320967 -s 0 -d -1 -p RTS -e 44 -c 2 -a 0 -i 0 -k MAC 
- -t 2.879320967 -s 0 -d -1 -p RTS -e 44 -c 2 -a 0 -i 0 -k MAC
h -t 2.879320967 -s 0 -d -1 -p RTS -e 44 -c 2 -a 0 -i 0 -k MAC
r -t 2.879673967 -s 1 -d -1 -p RTS -e 44 -c 2 -a 0 -i 0 -k MAC
+ -t 2.879683967 -s 1 -d -1 -p CTS -e 38 -c 2 -a 0 -i 0 -k MAC 
- -t 2.879683967 -s 1 -d -1 -p CTS -e 38 -c 2 -a 0 -i 0 -k MAC
h -t 2.879683967 -s 1 -d -1 -p CTS -e 38 -c 2 -a 0 -i 0 -k MAC
r -t 2.879988967 -s 0 -d -1 -p CTS -e 38 -c 2 -a 0 -i 0 -k MAC
+ -t 2.879998967 -s 0 -d 1 -p cbr -e 590 -c 2 -a 0 -i 5 -k MAC 
- -t 2.879998967 -s 0 -d 1 -p cbr -e 590 -c 2 -a 0 -i 5 -k MAC
h -t 2.879998967 -s 0 -d 1 -p cbr -e 590 -c 2 -a 0 -i 5 -k MAC
+ -t 2.882178967 -s 2 -d 1 -p cbr -e 532 -c 2 -a 0 -i 15 -k RTR 
- -t 2.882178967 -s 2 -d 1 -p cbr -e 532 -c 2 -a 0 -i 15 -k RTR
h -t 2.882178967 -s 2 -d 1 -p cbr -e 532 -c 2 -a 0 -i 15 -k RTR
+ -t 2.884141967 -s 0 -d 1 -p cbr -e 532 -c 2 -a 0 -i 8 -k RTR 
- -t 2.884141967 -s 0 -d 1 -p cbr -e 532 -c 2 -a 0 -i 8 -k RTR
h -t 2.884141967 -s 0 -d 1 -p cbr -e 532 -c 2 -a 0 -i 8 -k RTR
r -t 2.884719967 -s 1 -d 1 -p cbr -e 532 -c 2 -a 0 -i 5 -k MAC
+ -t 2.884729967 -s 1 -d -1 -p ACK -e 38 -c 2 -a 0 -i 0 -k MAC 
- -t 2.884729967 -s 1 -d -1 -p ACK -e 38 -c 2 -a 0 -i 0 -k MAC
h -t 2.884729967 -s 1 -d -1 -p ACK -e 38 -c 2 -a 0 -i 0 -k MAC
r -t 2.884744967 -s 1 -d 1 -p cbr -e 532 -c 2 -a 0 -i 5 -k AGT
r -t 2.885034967 -s 0 -d -1 -p ACK -e 38 -c 2 -a 0 -i 0 -k MAC
+ -t 2.885664967 -s 0 -d -1 -p RTS -e 44 -c 2 -a 0 -i 0 -k MAC 
- -t 2.885664967 -s 0 -d -1 -p RTS -e 44 -c 2 -a 0 -i 0 -k MAC
h -t 2.885664967 -s 0 -d -1 -p RTS -e 44 -c 2 -a 0 -i 0 -k MAC
r -t 2.886017967 -s 1 -d -1 -p RTS -e 44 -c 2 -a 0 -i 0 -k MAC
+ -t 2.886027967 -s 1 -d -1 -p CTS -e 38 -c 2 -a 0 -i 0 -k MAC 
- -t 2.886027967 -s 1 -d -1 -p CTS -e 38 -c 2 -a 0 -i 0 -k MAC
h -t 2.886027967 -s 1 -d -1 -p CTS -e 38 -c 2 -a 0 -i 0 -k MAC
r -t 2.886332967 -s 0 -d -1 -p CTS -e 38 -c 2 -a 0 -i 0 -k MAC
+ -t 2.886342967 -s 0 -d 1 -p cbr -e 590 -c 2 -a 0 -i 8 -k MAC 
- -t 2.886342967 -s 0 -d 1 -p cbr -e 590 -c 2 -a 0 -i 8 -k MAC
h -t 2.886342967 -s 0 -d 1 -p cbr -e 590 -c 2 -a 0 -i 8 -k MAC
r -t 2.891063967 -s 1 -d 1 -p cbr -e 532 -c 2 -a 0 -i 8 -k MAC
+ -t 2.891073967 -s 1 -d -1 -p ACK -e 38 -c 2 -a 0 -i 0 -k MAC 
- -t 2.891073967 -s 1 -d -1 -p ACK -e 38 -c 2 -a 0 -i 0 -k MAC
h -t 2.891073967 -s 1 -d -1 -p ACK -e 38 -c 2 -a 0 -i 0 -k MAC
r -t 2.891088967 -s 1 -d 1 -p cbr -e 532 -c 2 -a 0 -i 8 -k AGT
r -t 2.891378967 -s 0 -d -1 -p ACK -e 38 -c 2 -a 0 -i 0 -k MAC
+ -t 2.892178967 -s 2 -d 1 -p cbr -e 532 -c 2 -a 0 -i 16 -k RTR 
- -t 2.892178967 -s 2 -d 1 -p cbr -e 532 -c 2 -a 0 -i 16 -k RTR
h -t 2.892178967 -s 2 -d 1 -p cbr -e 532 -c 2 -a 0 -i 16 -k RTR
+ -t 2.894141967 -s 0 -d 1 -p cbr -e 532 -c 2 -a 0 -i 9 -k RTR 
- -t 2.894141967 -s 0 -d 1 -p cbr -e 532 -c 2 -a 0 -i 9 -k RTR
h -t 2.894141967 -s 0 -d 1 -p cbr -e 532 -c 2 -a 0 -i 9 -k RTR
+ -t 2.894408967 -s 2 -d -1 -p RTS -e 44 -c 2 -a 0 -i 0 -k MAC 
- -t 2.894408967 -s 2 -d -1 -p RTS -e 44 -c 2 -a 0 -i 0 -k MAC
h -t 2.894408967 -s 2 -d -1 -p RTS -e 44 -c 2 -a 0 -i 0 -k MAC
r -t 2.894761967 -s 1 -d -1 -p RTS -e 44 -c 2 -a 0 -i 0 -k MAC
+ -t 2.894771967 -s 1 -d -1 -p CTS -e 38 -c 2 -a 0 -i 0 -k MAC 
- -t 2.894771967 -s 1 -d -1 -p CTS -e 38 -c 2 -a 0 -i 0 -k MAC
h -t 2.894771967 -s 1 -d -1 -p CTS -e 38 -c 2 -a 0 -i 0 -k MAC
r -t 2.895076967 -s 2 -d -1 -p CTS -e 38 -c 2 -a 0 -i 0 -k MAC
+ -t 2.895086967 -s 2 -d 1 -p cbr -e 590 -c 2 -a 0 -i 11 -k MAC 
- -t 2.895086967 -s 2 -d 1 -p cbr -e 590 -c 2 -a 0 -i 11 -k MAC
h -t 2.895086967 -s 2 -d 1 -p cbr -e 590 -c 2 -a 0 -i 11 -k MAC