s -t 1.000000000 -Hs 0 -Hd -2 -Ni 0 -Nx 0.00 -Ny 100.00 -Nz 100.00 -Ne -1.000000 -Nl AGT -Nw --- -Ma 0 -Md 0 -Ms 0 -Mt 0 -Is 0.0 -Id 1.0 -It cbr -Il 512 -If 0 -Ii 0 -Iv 32 -Pn cbr -Pi 0 -Pf 0 -Po 0 
r -t 1.000000000 -Hs 0 -Hd -2 -Ni 0 -Nx 0.00 -Ny 100.00 -Nz 100.00 -Ne -1.000000 -Nl RTR -Nw --- -Ma 0 -Md 0 -Ms 0 -Mt 0 -Is 0.0 -Id 1.0 -It cbr -Il 512 -If 0 -Ii 0 -Iv 32 -Pn cbr -Pi 0 -Pf 0 -Po 0 
s -t 1.000000000 -Hs 2 -Hd -2 -Ni 2 -Nx 600.00 -Ny 100.00 -Nz 100.00 -Ne -1.000000 -Nl AGT -Nw --- -Ma 0 -Md 0 -Ms 0 -Mt 0 -Is 2.0 -Id 1.1 -It cbr -Il 512 -If 1 -Ii 1 -Iv 32 -Pn cbr -Pi 0 -Pf 0 -Po 0 
r -t 1.000000000 -Hs 2 -Hd -2 -Ni 2 -Nx 600.00 -Ny 100.00 -Nz 100.00 -Ne -1.000000 -Nl RTR -Nw --- -Ma 0 -Md 0 -Ms 0 -Mt 0 -Is 2.0 -Id 1.1 -It cbr -Il 512 -If 1 -Ii 1 -Iv 32 -Pn cbr -Pi 0 -Pf 0 -Po 0 
s -t 1.000000000 -Hs 0 -Hd -2 -Ni 0 -Nx 0.00 -Ny 100.00 -Nz 100.00 -Ne -1.000000 -Nl RTR -Nw --- -Ma 0 -Md 0 -Ms 0 -Mt 0 -Is 0.255 -Id -1.255 -It AODV -Il 48 -If 0 -Ii 0 -Iv 30 -P aodv -Pt 0x2 -Ph 1 -Pb 1 -Pd 1 -Pds 0 -Ps 0 -Pss 4 -Pc REQUEST 
s -t 1.000000000 -Hs 2 -Hd -2 -Ni 2 -Nx 600.00 -Ny 100.00 -Nz 100.00 -Ne -1.000000 -Nl RTR -Nw --- -Ma 0 -Md 0 -Ms 0 -Mt 0 -Is 2.255 -Id -1.255 -It AODV -Il 48 -If 0 -Ii 0 -Iv 30 -P aodv -Pt 0x2 -Ph 1 -Pb 1 -Pd 1 -Pds 0 -Ps 2 -Pss 4 -Pc REQUEST 
s -t 1.000375000 -Hs 2 -Hd -2 -Ni 2 -Nx 600.00 -Ny 100.00 -Nz 100.00 -Ne -1.000000 -Nl MAC -Nw --- -Ma 0 -Md ffffffff -Ms 2 -Mt 800 -Is 2.255 -Id -1.255 -It AODV -Il 106 -If 0 -Ii 0 -Iv 30 -P aodv -Pt 0x2 -Ph 1 -Pb 1 -Pd 1 -Pds 0 -Ps 2 -Pss 4 -Pc REQUEST 
s -t 1.000635000 -Hs 0 -Hd -2 -Ni 0 -Nx 0.00 -Ny 100.00 -Nz 100.00 -Ne -1.000000 -Nl MAC -Nw --- -Ma 0 -Md ffffffff -Ms 0 -Mt 800 -Is 0.255 -Id -1.255 -It AODV -Il 106 -If 0 -Ii 0 -Iv 30 -P aodv -Pt 0x2 -Ph 1 -Pb 1 -Pd 1 -Pds 0 -Ps 0 -Pss 4 -Pc REQUEST 
d -t 1.000636000 -Hs 1 -Hd -2 -Ni 1 -Nx 300.00 -Ny 100.00 -Nz 100.00 -Ne -1.000000 -Nl MAC -Nw COL -Ma 0 -Md ffffffff -Ms 2 -Mt 800 -Is 2.255 -Id -1.255 -It AODV -Il 106 -If 0 -Ii 0 -Iv 30 -P aodv -Pt 0x2 -Ph 1 -Pb 1 -Pd 1 -Pds 0 -Ps 2 -Pss 4 -Pc REQUEST 
d -t 1.001484000 -Hs 1 -Hd -2 -Ni 1 -Nx 300.00 -Ny 100.00 -Nz 100.00 -Ne -1.000000 -Nl MAC -Nw COL -Ma 0 -Md ffffffff -Ms 0 -Mt 800 -Is 0.255 -Id -1.255 -It AODV -Il 106 -If 0 -Ii 0 -Iv 30 -P aodv -Pt 0x2 -Ph 1 -Pb 1 -Pd 1 -Pds 0 -Ps 0 -Pss 4 -Pc REQUEST 
s -t 1.050033958 -Hs 0 -Hd -2 -Ni 0 -Nx 0.00 -Ny 100.00 -Nz 100.00 -Ne -1.000000 -Nl AGT -Nw --- -Ma 0 -Md 0 -Ms 0 -Mt 0 -Is 0.0 -Id 1.0 -It cbr -Il 512 -If 0 -Ii 2 -Iv 32 -Pn cbr -Pi 1 -Pf 0 -Po 0 
r -t 1.050033958 -Hs 0 -Hd -2 -Ni 0 -Nx 0.00 -Ny 100.00 -Nz 100.00 -Ne -1.000000 -Nl RTR -Nw --- -Ma 0 -Md 0 -Ms 0 -Mt 0 -Is 0.0 -Id 1.0 -It cbr -Il 512 -If 0 -Ii 2 -Iv 32 -Pn cbr -Pi 1 -Pf 0 -Po 0 
s -t 1.105588072 -Hs 2 -Hd -2 -Ni 2 -Nx 600.00 -Ny 100.00 -Nz 100.00 -Ne -1.000000 -Nl AGT -Nw --- -Ma 0 -Md 0 -Ms 0 -Mt 0 -Is 2.0 -Id 1.1 -It cbr -Il 512 -If 1 -Ii 3 -Iv 32 -Pn cbr -Pi 1 -Pf 0 -Po 0 
r -t 1.105588072 -Hs 2 -Hd -2 -Ni 2 -Nx 600.00 -Ny 100.00 -Nz 100.00 -Ne -1.000000 -Nl RTR -Nw --- -Ma 0 -Md 0 -Ms 0 -Mt 0 -Is 2.0 -Id 1.1 -It cbr -Il 512 -If 1 -Ii 3 -Iv 32 -Pn cbr -Pi 1 -Pf 0 -Po 0 
s -t 1.131330135 -Hs 0 -Hd -2 -Ni 0 -Nx 0.00 -Ny 100.00 -Nz 100.00 -Ne -1.000000 -Nl AGT -Nw --- -Ma 0 -Md 0 -Ms 0 -Mt 0 -Is 0.0 -Id 1.0 -It cbr -Il 512 -If 0 -Ii 4 -Iv 32 -Pn cbr -Pi 2 -Pf 0 -Po 0 
r -t 1.131330135 -Hs 0 -Hd -2 -Ni 0 -Nx 0.00 -Ny 100.00 -Nz 100.00 -Ne -1.000000 -Nl RTR -Nw --- -Ma 0 -Md 0 -Ms 0 -Mt 0 -Is 0.0 -Id 1.0 -It cbr -Il 512 -If 0 -Ii 4 -Iv 32 -Pn cbr -Pi 2 -Pf 0 -Po 0 
s -t 1.204790310 -Hs 0 -Hd -2 -Ni 0 -Nx 0.00 -Ny 100.00 -Nz 100.00 -Ne -1.000000 -Nl AGT -Nw --- -Ma 0 -Md 0 -Ms 0 -Mt 0 -Is 0.0 -Id 1.0 -It cbr -Il 512 -If 0 -Ii 5 -Iv 32 -Pn cbr -Pi 3 -Pf 0 -Po 0 
r -t 1.204790310 -Hs 0 -Hd -2 -Ni 0 -Nx 0.00 -Ny 100.00 -Nz 100.00 -Ne -1.000000 -Nl RTR -Nw --- -Ma 0 -Md 0 -Ms 0 -Mt 0 -Is 0.0 -Id 1.0 -It cbr -Il 512 -If 0 -Ii 5 -Iv 32 -Pn cbr -Pi 3 -Pf 0 -Po 0 
s -t 1.237235677 -Hs 2 -Hd -2 -Ni 2 -Nx 600.00 -Ny 100.00 -Nz 100.00 -Ne -1.000000 -Nl AGT -Nw --- -Ma 0 -Md 0 -Ms 0 -Mt 0 -Is 2.0 -Id 1.1 -It cbr -Il 512 -If 1 -Ii 6 -Iv 32 -Pn cbr -Pi 2 -Pf 0 -Po 0 
r -t 1.237235677 -Hs 2 -Hd -2 -Ni 2 -Nx 600.00 -Ny 100.00 -Nz 100.00 -Ne -1.000000 -Nl RTR -Nw --- -Ma 0 -Md 0 -Ms 0 -Mt 0 -Is 2.0 -Id 1.1 -It cbr -Il 512 -If 1 -Ii 6 -Iv 32 -Pn cbr -Pi 2 -Pf 0 -Po 0 
s -t 1.318143583 -Hs 2 -Hd -2 -Ni 2 -Nx 600.00 -Ny 100.00 -Nz 100.00 -Ne -1.000000 -Nl AGT -Nw --- -Ma 0 -Md 0 -Ms 0 -Mt 0 -Is 2.0 -Id 1.1 -It cbr -Il 512 -If 1 -Ii 7 -Iv 32 -Pn cbr -Pi 3 -Pf 0 -Po 0 
r -t 1.318143583 -Hs 2 -Hd -2 -Ni 2 -Nx 600.00 -Ny 100.00 -Nz 100.00 -Ne -1.000000 -Nl RTR -Nw --- -Ma 0 -Md 0 -Ms 0 -Mt 0 -Is 2.0 -Id 1.1 -It cbr -Il 512 -If 1 -Ii 7 -Iv 32 -Pn cbr -Pi 3 -Pf 0 -Po 0 
s -t 1.318676824 -Hs 0 -Hd -2 -Ni 0 -Nx 0.00 -Ny 100.00 -Nz 100.00 -Ne -1.000000 -Nl AGT -Nw --- -Ma 0 -Md 0 -Ms 0 -Mt 0 -Is 0.0 -Id 1.0 -It cbr -Il 512 -If 0 -Ii 8 -Iv 32 -Pn cbr -Pi 4 -Pf 0 -Po 0 
r -t 1.318676824 -Hs 0 -Hd -2 -Ni 0 -Nx 0.00 -Ny 100.00 -Nz 100.00 -Ne -1.000000 -Nl RTR -Nw --- -Ma 0 -Md 0 -Ms 0 -Mt 0 -Is 0.0 -Id 1.0 -It cbr -Il 512 -If 0 -Ii 8 -Iv 32 -Pn cbr -Pi 4 -Pf 0 -Po 0 
s -t 1.385091365 -Hs 0 -Hd -2 -Ni 0 -Nx 0.00 -Ny 100.00 -Nz 100.00 -Ne -1.000000 -Nl AGT -Nw --- -Ma 0 -Md 0 -Ms 0 -Mt 0 -Is 0.0 -Id 1.0 -It cbr -Il 512 -If 0 -Ii 9 -Iv 32 -Pn cbr -Pi 5 -Pf 0 -Po 0 
r -t 1.385091365 -Hs 0 -Hd -2 -Ni 0 -Nx 0.00 -Ny 100.00 -Nz 100.00 -Ne -1.000000 -Nl RTR -Nw --- -Ma 0 -Md 0 -Ms 0 -Mt 0 -Is 0.0 -Id 1.0 -It cbr -Il 512 -If 0 -Ii 9 -Iv 32 -Pn cbr -Pi 5 -Pf 0 -Po 0 
s -t 1.439370821 -Hs 0 -Hd -2 -Ni 0 -Nx 0.00 -Ny 100.00 -Nz 100.00 -Ne -1.000000 -Nl AGT -Nw --- -Ma 0 -Md 0 -Ms 0 -Mt 0 -Is 0.0 -Id 1.0 -It cbr -Il 512 -If 0 -Ii 10 -Iv 32 -Pn cbr -Pi 6 -Pf 0 -Po 0 
r -t 1.439370821 -Hs 0 -Hd -2 -Ni 0 -Nx 0.00 -Ny 100.00 -Nz 100.00 -Ne -1.000000 -Nl RTR -Nw --- -Ma 0 -Md 0 -Ms 0 -Mt 0 -Is 0.0 -Id 1.0 -It cbr -Il 512 -If 0 -Ii 10 -Iv 32 -Pn cbr -Pi 6 -Pf 0 -Po 0 
s -t 1.451775936 -Hs 2 -Hd -2 -Ni 2 -Nx 600.00 -Ny 100.00 -Nz 100.00 -Ne -1.000000 -Nl AGT -Nw --- -Ma 0 -Md 0 -Ms 0 -Mt 0 -Is 2.0 -Id 1.1 -It cbr -Il 512 -If 1 -Ii 11 -Iv 32 -Pn cbr -Pi 4 -Pf 0 -Po 0 
r -t 1.451775936 -Hs 2 -Hd -2 -Ni 2 -Nx 600.00 -Ny 100.00 -Nz 100.00 -Ne -1.000000 -Nl RTR -Nw --- -Ma 0 -Md 0 -Ms 0 -Mt 0 -Is 2.0 -Id 1.1 -It cbr -Il 512 -If 1 -Ii 11 -Iv 32 -Pn cbr -Pi 4 -Pf 0 -Po 0 
s -t 1.513156761 -Hs 2 -Hd -2 -Ni 2 -Nx 600.00 -Ny 100.00 -Nz 100.00 -Ne -1.000000 -Nl AGT -Nw --- -Ma 0 -Md 0 -Ms 0 -Mt 0 -Is 2.0 -Id 1.1 -It cbr -Il 512 -If 1 -Ii 12 -Iv 32 -Pn cbr -Pi 5 -Pf 0 -Po 0 
r -t 1.513156761 -Hs 2 -Hd -2 -Ni 2 -Nx 600.00 -Ny 100.00 -Nz 100.00 -Ne -1.000000 -Nl RTR -Nw --- -Ma 0 -Md 0 -Ms 0 -Mt 0 -Is 2.0 -Id 1.1 -It cbr -Il 512 -If 1 -Ii 12 -Iv 32 -Pn cbr -Pi 5 -Pf 0 -Po 0 
s -t 1.553377587 -Hs 0 -Hd -2 -Ni 0 -Nx 0.00 -Ny 100.00 -Nz 100.00 -Ne -1.000000 -Nl AGT -Nw --- -Ma 0 -Md 0 -Ms 0 -Mt 0 -Is 0.0 -Id 1.0 -It cbr -Il 512 -If 0 -Ii 13 -Iv 32 -Pn cbr -Pi 7 -Pf 0 -Po 0 
r -t 1.553377587 -Hs 0 -Hd -2 -Ni 0 -Nx 0.00 -Ny 100.00 -Nz 100.00 -Ne -1.000000 -Nl RTR -Nw --- -Ma 0 -Md 0 -Ms 0 -Mt 0 -Is 0.0 -Id 1.0 -It cbr -Il 512 -If 0 -Ii 13 -Iv 32 -Pn cbr -Pi 7 -Pf 0 -Po 0 
s -t 1.645743260 -Hs 0 -Hd -2 -Ni 0 -Nx 0.00 -Ny 100.00 -Nz 100.00 -Ne -1.000000 -Nl AGT -Nw --- -Ma 0 -Md 0 -Ms 0 -Mt 0 -Is 0.0 -Id 1.0 -It cbr -Il 512 -If 0 -Ii 14 -Iv 32 -Pn cbr -Pi 8 -Pf 0 -Po 0 
r -t 1.645743260 -Hs 0 -Hd -2 -Ni 0 -Nx 0.00 -Ny 100.00 -Nz 100.00 -Ne -1.000000 -Nl RTR -Nw --- -Ma 0 -Md 0 -Ms 0 -Mt 0 -Is 0.0 -Id 1.0 -It cbr -Il 512 -If 0 -Ii 14 -Iv 32 -Pn cbr -Pi 8 -Pf 0 -Po 0 
s -t 1.649129531 -Hs 2 -Hd -2 -Ni 2 -Nx 600.00 -Ny 100.00 -Nz 100.00 -Ne -1.000000 -Nl AGT -Nw --- -Ma 0 -Md 0 -Ms 0 -Mt 0 -Is 2.0 -Id 1.1 -It cbr -Il 512 -If 1 -Ii 15 -Iv 32 -Pn cbr -Pi 6 -Pf 0 -Po 0 
r -t 1.649129531 -Hs 2 -Hd -2 -Ni 2 -Nx 600.00 -Ny 100.00 -Nz 100.00 -Ne -1.000000 -Nl RTR -Nw --- -Ma 0 -Md 0 -Ms 0 -Mt 0 -Is 2.0 -Id 1.1 -It cbr -Il 512 -If 1 -Ii 15 -Iv 32 -Pn cbr -Pi 6 -Pf 0 -Po 0 
s -t 1.708543416 -Hs 2 -Hd -2 -Ni 2 -Nx 600.00 -Ny 100.00 -Nz 100.00 -Ne -1.000000 -Nl AGT -Nw --- -Ma 0 -Md 0 -Ms 0 -Mt 0 -Is 2.0 -Id 1.1 -It cbr -Il 512 -If 1 -Ii 16 -Iv 32 -Pn cbr -Pi 7 -Pf 0 -Po 0 
r -t 1.708543416 -Hs 2 -Hd -2 -Ni 2 -Nx 600.00 -Ny 100.00 -Nz 100.00 -Ne -1.000000 -Nl RTR -Nw --- -Ma 0 -Md 0 -Ms 0 -Mt 0 -Is 2.0 -Id 1.1 -It cbr -Il 512 -If 1 -Ii 16 -Iv 32 -Pn cbr -Pi 7 -Pf 0 -Po 0 
s -t 1.713223786 -Hs 0 -Hd -2 -Ni 0 -Nx 0.00 -Ny 100.00 -Nz 100.00 -Ne -1.000000 -Nl AGT -Nw --- -Ma 0 -Md 0 -Ms 0 -Mt 0 -Is 0.0 -Id 1.0 -It cbr -Il 512 -If 0 -Ii 17 -Iv 32 -Pn cbr -Pi 9 -Pf 0 -Po 0 
r -t 1.713223786 -Hs 0 -Hd -2 -Ni 0 -Nx 0.00 -Ny 100.00 -Nz 100.00 -Ne -1.000000 -Nl RTR -Nw --- -Ma 0 -Md 0 -Ms 0 -Mt 0 -Is 0.0 -Id 1.0 -It cbr -Il 512 -If 0 -Ii 17 -Iv 32 -Pn cbr -Pi 9 -Pf 0 -Po 0 
s -t 1.798097888 -Hs 0 -Hd -2 -Ni 0 -Nx 0.00 -Ny 100.00 -Nz 100.00 -Ne -1.000000 -Nl AGT -Nw --- -Ma 0 -Md 0 -Ms 0 -Mt 0 -Is 0.0 -Id 1.0 -It cbr -Il 512 -If 0 -Ii 18 -Iv 32 -Pn cbr -Pi 10 -Pf 0 -Po 0 
r -t 1.798097888 -Hs 0 -Hd -2 -Ni 0 -Nx 0.00 -Ny 100.00 -Nz 100.00 -Ne -1.000000 -Nl RTR -Nw --- -Ma 0 -Md 0 -Ms 0 -Mt 0 -Is 0.0 -Id 1.0 -It cbr -Il 512 -If 0 -Ii 18 -Iv 32 -Pn cbr -Pi 10 -Pf 0 -Po 0 
s -t 1.839246272 -Hs 2 -Hd -2 -Ni 2 -Nx 600.00 -Ny 100.00 -Nz 100.00 -Ne -1.000000 -Nl AGT -Nw --- -Ma 0 -Md 0 -Ms 0 -Mt 0 -Is 2.0 -Id 1.1 -It cbr -Il 512 -If 1 -Ii 19 -Iv 32 -Pn cbr -Pi 8 -Pf 0 -Po 0 
r -t 1.839246272 -Hs 2 -Hd -2 -Ni 2 -Nx 600.00 -Ny 100.00 -Nz 100.00 -Ne -1.000000 -Nl RTR -Nw --- -Ma 0 -Md 0 -Ms 0 -Mt 0 -Is 2.0 -Id 1.1 -It cbr -Il 512 -If 1 -Ii 19 -Iv 32 -Pn cbr -Pi 8 -Pf 0 -Po 0 
s -t 1.873906683 -Hs 0 -Hd -2 -Ni 0 -Nx 0.00 -Ny 100.00 -Nz 100.00 -Ne -1.000000 -Nl AGT -Nw --- -Ma 0 -Md 0 -Ms 0 -Mt 0 -Is 0.0 -Id 1.0 -It cbr -Il 512 -If 0 -Ii 20 -Iv 32 -Pn cbr -Pi 11 -Pf 0 -Po 0 
r -t 1.873906683 -Hs 0 -Hd -2 -Ni 0 -Nx 0.00 -Ny 100.00 -Nz 100.00 -Ne -1.000000 -Nl RTR -Nw --- -Ma 0 -Md 0 -Ms 0 -Mt 0 -Is 0.0 -Id 1.0 -It cbr -Il 512 -If 0 -Ii 20 -Iv 32 -Pn cbr -Pi 11 -Pf 0 -Po 0 
s -t 1.930114839 -Hs 2 -Hd -2 -Ni 2 -Nx 600.00 -Ny 100.00 -Nz 100.00 -Ne -1.000000 -Nl AGT -Nw --- -Ma 0 -Md 0 -Ms 0 -Mt 0 -Is 2.0 -Id 1.1 -It cbr -Il 512 -If 1 -Ii 21 -Iv 32 -Pn cbr -Pi 9 -Pf 0 -Po 0 
r -t 1.930114839 -Hs 2 -Hd -2 -Ni 2 -Nx 600.00 -Ny 100.00 -Nz 100.00 -Ne -1.000000 -Nl RTR -Nw --- -Ma 0 -Md 0 -Ms 0 -Mt 0 -Is 2.0 -Id 1.1 -It cbr -Il 512 -If 1 -Ii 21 -Iv 32 -Pn cbr -Pi 9 -Pf 0 -Po 0 
s -t 1.975771563 -Hs 0 -Hd -2 -Ni 0 -Nx 0.00 -Ny 100.00 -Nz 100.00 -Ne -1.000000 -Nl AGT -Nw --- -Ma 0 -Md 0 -Ms 0 -Mt 0 -Is 0.0 -Id 1.0 -It cbr -Il 512 -If 0 -Ii 22 -Iv 32 -Pn cbr -Pi 12 -Pf 0 -Po 0 
r -t 1.975771563 -Hs 0 -Hd -2 -Ni 0 -Nx 0.00 -Ny 100.00 -Nz 100.00 -Ne -1.000000 -Nl RTR -Nw --- -Ma 0 -Md 0 -Ms 0 -Mt 0 -Is 0.0 -Id 1.0 -It cbr -Il 512 -If 0 -Ii 22 -Iv 32 -Pn cbr -Pi 12 -Pf 0 -Po 0 
s -t 2.026726433 -Hs 2 -Hd -2 -Ni 2 -Nx 600.00 -Ny 100.00 -Nz 100.00 -Ne -1.000000 -Nl AGT -Nw --- -Ma 0 -Md 0 -Ms 0 -Mt 0 -Is 2.0 -Id 1.1 -It cbr -Il 512 -If 1 -Ii 23 -Iv 32 -Pn cbr -Pi 10 -Pf 0 -Po 0 
r -t 2.026726433 -Hs 2 -Hd -2 -Ni 2 -Nx 600.00 -Ny 100.00 -Nz 100.00 -Ne -1.000000 -Nl RTR -Nw --- -Ma 0 -Md 0 -Ms 0 -Mt 0 -Is 2.0 -Id 1.1 -It cbr -Il 512 -If 1 -Ii 23 -Iv 32 -Pn cbr -Pi 10 -Pf 0 -Po 0 
s -t 2.095002246 -Hs 0 -Hd -2 -Ni 0 -Nx 0.00 -Ny 100.00 -Nz 100.00 -Ne -1.000000 -Nl AGT -Nw --- -Ma 0 -Md 0 -Ms 0 -Mt 0 -Is 0.0 -Id 1.0 -It cbr -Il 512 -If 0 -Ii 24 -Iv 32 -Pn cbr -Pi 13 -Pf 0 -Po 0 
r -t 2.095002246 -Hs 0 -Hd -2 -Ni 0 -Nx 0.00 -Ny 100.00 -Nz 100.00 -Ne -1.000000 -Nl RTR -Nw --- -Ma 0 -Md 0 -Ms 0 -Mt 0 -Is 0.0 -Id 1.0 -It cbr -Il 512 -If 0 -Ii 24 -Iv 32 -Pn cbr -Pi 13 -Pf 0 -Po 0 
s -t 2.162933161 -Hs 2 -Hd -2 -Ni 2 -Nx 600.00 -Ny 100.00 -Nz 100.00 -Ne -1.000000 -Nl AGT -Nw --- -Ma 0 -Md 0 -Ms 0 -Mt 0 -Is 2.0 -Id 1.1 -It cbr -Il 512 -If 1 -Ii 25 -Iv 32 -Pn cbr -Pi 11 -Pf 0 -Po 0 
r -t 2.162933161 -Hs 2 -Hd -2 -Ni 2 -Nx 600.00 -Ny 100.00 -Nz 100.00 -Ne -1.000000 -Nl RTR -Nw --- -Ma 0 -Md 0 -Ms 0 -Mt 0 -Is 2.0 -Id 1.1 -It cbr -Il 512 -If 1 -Ii 25 -Iv 32 -Pn cbr -Pi 11 -Pf 0 -Po 0 
s -t 2.228984766 -Hs 0 -Hd -2 -Ni 0 -Nx 0.00 -Ny 100.00 -Nz 100.00 -Ne -1.000000 -Nl AGT -Nw --- -Ma 0 -Md 0 -Ms 0 -Mt 0 -Is 0.0 -Id 1.0 -It cbr -Il 512 -If 0 -Ii 26 -Iv 32 -Pn cbr -Pi 14 -Pf 0 -Po 0 
r -t 2.228984766 -Hs 0 -Hd -2 -Ni 0 -Nx 0.00 -Ny 100.00 -Nz 100.00 -Ne -1.000000 -Nl RTR -Nw --- -Ma 0 -Md 0 -Ms 0 -Mt 0 -Is 0.0 -Id 1.0 -It cbr -Il 512 -If 0 -Ii 26 -Iv 32 -Pn cbr -Pi 14 -Pf 0 -Po 0 
s -t 2.234649107 -Hs 2 -Hd -2 -Ni 2 -Nx 600.00 -Ny 100.00 -Nz 100.00 -Ne -1.000000 -Nl AGT -Nw --- -Ma 0 -Md 0 -Ms 0 -Mt 0 -Is 2.0 -Id 1.1 -It cbr -Il 512 -If 1 -Ii 27 -Iv 32 -Pn cbr -Pi 12 -Pf 0 -Po 0 
r -t 2.234649107 -Hs 2 -Hd -2 -Ni 2 -Nx 600.00 -Ny 100.00 -Nz 100.00 -Ne -1.000000 -Nl RTR -Nw --- -Ma 0 -Md 0 -Ms 0 -Mt 0 -Is 2.0 -Id 1.1 -It cbr -Il 512 -If 1 -Ii 27 -Iv 32 -Pn cbr -Pi 12 -Pf 0 -Po 0 
s -t 2.303107329 -Hs 0 -Hd -2 -Ni 0 -Nx 0.00 -Ny 100.00 -Nz 100.00 -Ne -1.000000 -Nl AGT -Nw --- -Ma 0 -Md 0 -Ms 0 -Mt 0 -Is 0.0 -Id 1.0 -It cbr -Il 512 -If 0 -Ii 28 -Iv 32 -Pn cbr -Pi 15 -Pf 0 -Po 0 
r -t 2.303107329 -Hs 0 -Hd -2 -Ni 0 -Nx 0.00 -Ny 100.00 -Nz 100.00 -Ne -1.000000 -Nl RTR -Nw --- -Ma 0 -Md 0 -Ms 0 -Mt 0 -Is 0.0 -Id 1.0 -It cbr -Il 512 -If 0 -Ii 28 -Iv 32 -Pn cbr -Pi 15 -Pf 0 -Po 0 
s -t 2.369759762 -Hs 2 -Hd -2 -Ni 2 -Nx 600.00 -Ny 100.00 -Nz 100.00 -Ne -1.000000 -Nl AGT -Nw --- -Ma 0 -Md 0 -Ms 0 -Mt 0 -Is 2.0 -Id 1.1 -It cbr -Il 512 -If 1 -Ii 29 -Iv 32 -Pn cbr -Pi 13 -Pf 0 -Po 0 
r -t 2.369759762 -Hs 2 -Hd -2 -Ni 2 -Nx 600.00 -Ny 100.00 -Nz 100.00 -Ne -1.000000 -Nl RTR -Nw --- -Ma 0 -Md 0 -Ms 0 -Mt 0 -Is 2.0 -Id 1.1 -It cbr -Il 512 -If 1 -Ii 29 -Iv 32 -Pn cbr -Pi 13 -Pf 0 -Po 0 
s -t 2.420842223 -Hs 0 -Hd -2 -Ni 0 -Nx 0.00 -Ny 100.00 -Nz 100.00 -Ne -1.000000 -Nl AGT -Nw --- -Ma 0 -Md 0 -Ms 0 -Mt 0 -Is 0.0 -Id 1.0 -It cbr -Il 512 -If 0 -Ii 30 -Iv 32 -Pn cbr -Pi 16 -Pf 0 -Po 0 
r -t 2.420842223 -Hs 0 -Hd -2 -Ni 0 -Nx 0.00 -Ny 100.00 -Nz 100.00 -Ne -1.000000 -Nl RTR -Nw --- -Ma 0 -Md 0 -Ms 0 -Mt 0 -Is 0.0 -Id 1.0 -It cbr -Il 512 -If 0 -Ii 30 -Iv 32 -Pn cbr -Pi 16 -Pf 0 -Po 0 
s -t 2.495982951 -Hs 2 -Hd -2 -Ni 2 -Nx 600.00 -Ny 100.00 -Nz 100.00 -Ne -1.000000 -Nl AGT -Nw --- -Ma 0 -Md 0 -Ms 0 -Mt 0 -Is 2.0 -Id 1.1 -It cbr -Il 512 -If 1 -Ii 31 -Iv 32 -Pn cbr -Pi 14 -Pf 0 -Po 0 
r -t 2.495982951 -Hs 2 -Hd -2 -Ni 2 -Nx 600.00 -Ny 100.00 -Nz 100.00 -Ne -1.000000 -Nl RTR -Nw --- -Ma 0 -Md 0 -Ms 0 -Mt 0 -Is 2.0 -Id 1.1 -It cbr -Il 512 -If 1 -Ii 31 -Iv 32 -Pn cbr -Pi 14 -Pf 0 -Po 0 
s -t 2.561336770 -Hs 0 -Hd -2 -Ni 0 -Nx 0.00 -Ny 100.00 -Nz 100.00 -Ne -1.000000 -Nl AGT -Nw --- -Ma 0 -Md 0 -Ms 0 -Mt 0 -Is 0.0 -Id 1.0 -It cbr -Il 512 -If 0 -Ii 32 -Iv 32 -Pn cbr -Pi 17 -Pf 0 -Po 0 
r -t 2.561336770 -Hs 0 -Hd -2 -Ni 0 -Nx 0.00 -Ny 100.00 -Nz 100.00 -Ne -1.000000 -Nl RTR -Nw --- -Ma 0 -Md 0 -Ms 0 -Mt 0 -Is 0.0 -Id 1.0 -It cbr -Il 512 -If 0 -Ii 32 -Iv 32 -Pn cbr -Pi 17 -Pf 0 -Po 0 
s -t 2.586534859 -Hs 2 -Hd -2 -Ni 2 -Nx 600.00 -Ny 100.00 -Nz 100.00 -Ne -1.000000 -Nl AGT -Nw --- -Ma 0 -Md 0 -Ms 0 -Mt 0 -Is 2.0 -Id 1.1 -It cbr -Il 512 -If 1 -Ii 33 -Iv 32 -Pn cbr -Pi 15 -Pf 0 -Po 0 
r -t 2.586534859 -Hs 2 -Hd -2 -Ni 2 -Nx 600.00 -Ny 100.00 -Nz 100.00 -Ne -1.000000 -Nl RTR -Nw --- -Ma 0 -Md 0 -Ms 0 -Mt 0 -Is 2.0 -Id 1.1 -It cbr -Il 512 -If 1 -Ii 33 -Iv 32 -Pn cbr -Pi 15 -Pf 0 -Po 0 
s -t 2.622256617 -Hs 0 -Hd -2 -Ni 0 -Nx 0.00 -Ny 100.00 -Nz 100.00 -Ne -1.000000 -Nl AGT -Nw --- -Ma 0 -Md 0 -Ms 0 -Mt 0 -Is 0.0 -Id 1.0 -It cbr -Il 512 -If 0 -Ii 34 -Iv 32 -Pn cbr -Pi 18 -Pf 0 -Po 0 
r -t 2.622256617 -Hs 0 -Hd -2 -Ni 0 -Nx 0.00 -Ny 100.00 -Nz 100.00 -Ne -1.000000 -Nl RTR -Nw --- -Ma 0 -Md 0 -Ms 0 -Mt 0 -Is 0.0 -Id 1.0 -It cbr -Il 512 -If 0 -Ii 34 -Iv 32 -Pn cbr -Pi 18 -Pf 0 -Po 0 
s -t 2.676955612 -Hs 2 -Hd -2 -Ni 2 -Nx 600.00 -Ny 100.00 -Nz 100.00 -Ne -1.000000 -Nl AGT -Nw --- -Ma 0 -Md 0 -Ms 0 -Mt 0 -Is 2.0 -Id 1.1 -It cbr -Il 512 -If 1 -Ii 35 -Iv 32 -Pn cbr -Pi 16 -Pf 0 -Po 0 
r -t 2.676955612 -Hs 2 -Hd -2 -Ni 2 -Nx 600.00 -Ny 100.00 -Nz 100.00 -Ne -1.000000 -Nl RTR -Nw --- -Ma 0 -Md 0 -Ms 0 -Mt 0 -Is 2.0 -Id 1.1 -It cbr -Il 512 -If 1 -Ii 35 -Iv 32 -Pn cbr -Pi 16 -Pf 0 -Po 0 
s -t 2.690993142 -Hs 0 -Hd -2 -Ni 0 -Nx 0.00 -Ny 100.00 -Nz 100.00 -Ne -1.000000 -Nl AGT -Nw --- -Ma 0 -Md 0 -Ms 0 -Mt 0 -Is 0.0 -Id 1.0 -It cbr -Il 512 -If 0 -Ii 36 -Iv 32 -Pn cbr -Pi 19 -Pf 0 -Po 0 
r -t 2.690993142 -Hs 0 -Hd -2 -Ni 0 -Nx 0.00 -Ny 100.00 -Nz 100.00 -Ne -1.000000 -Nl RTR -Nw --- -Ma 0 -Md 0 -Ms 0 -Mt 0 -Is 0.0 -Id 1.0 -It cbr -Il 512 -If 0 -Ii 36 -Iv 32 -Pn cbr -Pi 19 -Pf 0 -Po 0 
s -t 2.815699967 -Hs 2 -Hd -2 -Ni 2 -Nx 600.00 -Ny 100.00 -Nz 100.00 -Ne -1.000000 -Nl AGT -Nw --- -Ma 0 -Md 0 -Ms 0 -Mt 0 -Is 2.0 -Id 1.1 -It cbr -Il 512 -If 1 -Ii 37 -Iv 32 -Pn cbr -Pi 17 -Pf 0 -Po 0 
r -t 2.815699967 -Hs 2 -Hd -2 -Ni 2 -Nx 600.00 -Ny 100.00 -Nz 100.00 -Ne -1.000000 -Nl RTR -Nw --- -Ma 0 -Md 0 -Ms 0 -Mt 0 -Is 2.0 -Id 1.1 -It cbr -Il 512 -If 1 -Ii 37 -Iv 32 -Pn cbr -Pi 17 -Pf 0 -Po 0 
s -t 2.815699967 -Hs 2 -Hd -2 -Ni 2 -Nx 600.00 -Ny 100.00 -Nz 100.00 -Ne -1.000000 -Nl RTR -Nw --- -Ma 0 -Md 0 -Ms 0 -Mt 0 -Is 2.255 -Id -1.255 -It AODV -Il 48 -If 0 -Ii 0 -Iv 30 -P aodv -Pt 0x2 -Ph 1 -Pb 2 -Pd 1 -Pds 0 -Ps 2 -Pss 6 -Pc REQUEST 
s -t 2.816354967 -Hs 2 -Hd -2 -Ni 2 -Nx 600.00 -Ny 100.00 -Nz 100.00 -Ne -1.000000 -Nl MAC -Nw --- -Ma 0 -Md ffffffff -Ms 2 -Mt 800 -Is 2.255 -Id -1.255 -It AODV -Il 106 -If 0 -Ii 0 -Iv 30 -P aodv -Pt 0x2 -Ph 1 -Pb 2 -Pd 1 -Pds 0 -Ps 2 -Pss 6 -Pc REQUEST 
r -t 2.817203967 -Hs 1 -Hd -2 -Ni 1 -Nx 300.00 -Ny 100.00 -Nz 100.00 -Ne -1.000000 -Nl MAC -Nw --- -Ma 0 -Md ffffffff -Ms 2 -Mt 800 -Is 2.255 -Id -1.255 -It AODV -Il 48 -If 0 -Ii 0 -Iv 30 -P aodv -Pt 0x2 -Ph 1 -Pb 2 -Pd 1 -Pds 0 -Ps 2 -Pss 6 -Pc REQUEST 
r -t 2.817228967 -Hs 1 -Hd -2 -Ni 1 -Nx 300.00 -Ny 100.00 -Nz 100.00 -Ne -1.000000 -Nl RTR -Nw --- -Ma 0 -Md ffffffff -Ms 2 -Mt 800 -Is 2.255 -Id -1.255 -It AODV -Il 48 -If 0 -Ii 0 -Iv 30 -P aodv -Pt 0x2 -Ph 1 -Pb 2 -Pd 1 -Pds 0 -Ps 2 -Pss 6 -Pc REQUEST 
s -t 2.817228967 -Hs 1 -Hd 2 -Ni 1 -Nx 300.00 -Ny 100.00 -Nz 100.00 -Ne -1.000000 -Nl RTR -Nw --- -Ma 0 -Md 0 -Ms 0 -Mt 0 -Is 1.255 -Id 2.255 -It AODV -Il 44 -If 0 -Ii 0 -Iv 30 -P aodv -Pt 0x4 -Ph 1 -Pd 1 -Pds 4 -Pl 10.000000 -Pc REPLY 
s -t 2.817403967 -Hs 1 -Hd -2 -Ni 1 -Nx 300.00 -Ny 100.00 -Nz 100.00 -Ne -1.000000 -Nl MAC -Nw --- -Ma 0 -Md ffffffff -Ms 1 -Mt 806 -P arp -Po REQUEST -Pms 1 -Ps 1 -Pmd 0 -Pd 2 
r -t 2.818092967 -Hs 0 -Hd -2 -Ni 0 -Nx 0.00 -Ny 100.00 -Nz 100.00 -Ne -1.000000 -Nl MAC -Nw --- -Ma 0 -Md ffffffff -Ms 1 -Mt 806 -P arp -Po REQUEST -Pms 1 -Ps 1 -Pmd 0 -Pd 2 
r -t 2.818092967 -Hs 2 -Hd -2 -Ni 2 -Nx 600.00 -Ny 100.00 -Nz 100.00 -Ne -1.000000 -Nl MAC -Nw --- -Ma 0 -Md ffffffff -Ms 1 -Mt 806 -P arp -Po REQUEST -Pms 1 -Ps 1 -Pmd 0 -Pd 2 
s -t 2.818647967 -Hs 2 -Hd -2 -Ni 2 -Nx 600.00 -Ny 100.00 -Nz 100.00 -Ne -1.000000 -Nl MAC -Nw --- -Ma 52e -Md 1 -Ms 2 -Mt 0 
r -t 2.819000967 -Hs 1 -Hd -2 -Ni 1 -Nx 300.00 -Ny 100.00 -Nz 100.00 -Ne -1.000000 -Nl MAC -Nw --- -Ma 52e -Md 1 -Ms 2 -Mt 0 
s -t 2.819010967 -Hs 1 -Hd -2 -Ni 1 -Nx 300.00 -Ny 100.00 -Nz 100.00 -Ne -1.000000 -Nl MAC -Nw --- -Ma 3f4 -Md 2 -Ms 0 -Mt 0 
r -t 2.819315967 -Hs 2 -Hd -2 -Ni 2 -Nx 600.00 -Ny 100.00 -Nz 100.00 -Ne -1.000000 -Nl MAC -Nw --- -Ma 3f4 -Md 2 -Ms 0 -Mt 0 
s -t 2.819325967 -Hs 2 -Hd -2 -Ni 2 -Nx 600.00 -Ny 100.00 -Nz 100.00 -Ne -1.000000 -Nl MAC -Nw --- -Ma 13a -Md 1 -Ms 2 -Mt 806 -P arp -Po REPLY -Pms 2 -Ps 2 -Pmd 1 -Pd 1 
r -t 2.820014967 -Hs 1 -Hd -2 -Ni 1 -Nx 300.00 -Ny 100.00 -Nz 100.00 -Ne -1.000000 -Nl MAC -Nw --- -Ma 13a -Md 1 -Ms 2 -Mt 806 -P arp -Po REPLY -Pms 2 -Ps 2 -Pmd 1 -Pd 1 
s -t 2.820024967 -Hs 1 -Hd -2 -Ni 1 -Nx 300.00 -Ny 100.00 -Nz 100.00 -Ne -1.000000 -Nl MAC -Nw --- -Ma 0 -Md 2 -Ms 0 -Mt 0 
r -t 2.820329967 -Hs 2 -Hd -2 -Ni 2 -Nx 600.00 -Ny 100.00 -Nz 100.00 -Ne -1.000000 -Nl MAC -Nw --- -Ma 0 -Md 2 -Ms 0 -Mt 0 
s -t 2.820658967 -Hs 1 -Hd -2 -Ni 1 -Nx 300.00 -Ny 100.00 -Nz 100.00 -Ne -1.000000 -Nl MAC -Nw --- -Ma 5ae -Md 2 -Ms 1 -Mt 0 
r -t 2.821011967 -Hs 2 -Hd -2 -Ni 2 -Nx 600.00 -Ny 100.00 -Nz 100.00 -Ne -1.000000 -Nl MAC -Nw --- -Ma 5ae -Md 2 -Ms 1 -Mt 0 
s -t 2.821021967 -Hs 2 -Hd -2 -Ni 2 -Nx 600.00 -Ny 100.00 -Nz 100.00 -Ne -1.000000 -Nl MAC -Nw --- -Ma 474 -Md 1 -Ms 0 -Mt 0 
r -t 2.821326967 -Hs 1 -Hd -2 -Ni 1 -Nx 300.00 -Ny 100.00 -Nz 100.00 -Ne -1.000000 -Nl MAC -Nw --- -Ma 474 -Md 1 -Ms 0 -Mt 0 
s -t 2.821336967 -Hs 1 -Hd 2 -Ni 1 -Nx 300.00 -Ny 100.00 -Nz 100.00 -Ne -1.000000 -Nl MAC -Nw --- -Ma 13a -Md 2 -Ms 1 -Mt 800 -Is 1.255 -Id 2.255 -It AODV -Il 102 -If 0 -Ii 0 -Iv 30 -P aodv -Pt 0x4 -Ph 1 -Pd 1 -Pds 4 -Pl 10.000000 -Pc REPLY 
r -t 2.822153967 -Hs 2 -Hd 2 -Ni 2 -Nx 600.00 -Ny 100.00 -Nz 100.00 -Ne -1.000000 -Nl MAC -Nw --- -Ma 13a -Md 2 -Ms 1 -Mt 800 -Is 1.255 -Id 2.255 -It AODV -Il 44 -If 0 -Ii 0 -Iv 30 -P aodv -Pt 0x4 -Ph 1 -Pd 1 -Pds 4 -Pl 10.000000 -Pc REPLY 
s -t 2.822163967 -Hs 2 -Hd -2 -Ni 2 -Nx 600.00 -Ny 100.00 -Nz 100.00 -Ne -1.000000 -Nl MAC -Nw --- -Ma 0 -Md 1 -Ms 0 -Mt 0 
r -t 2.822178967 -Hs 2 -Hd 2 -Ni 2 -Nx 600.00 -Ny 100.00 -Nz 100.00 -Ne -1.000000 -Nl RTR -Nw --- -Ma 13a -Md 2 -Ms 1 -Mt 800 -Is 1.255 -Id 2.255 -It AODV -Il 44 -If 0 -Ii 0 -Iv 30 -P aodv -Pt 0x4 -Ph 1 -Pd 1 -Pds 4 -Pl 10.000000 -Pc REPLY 
s -t 2.822178967 -Hs 2 -Hd 1 -Ni 2 -Nx 600.00 -Ny 100.00 -Nz 100.00 -Ne -1.000000 -Nl RTR -Nw --- -Ma 0 -Md 0 -Ms 0 -Mt 0 -Is 2.0 -Id 1.1 -It cbr -Il 532 -If 1 -Ii 1 -Iv 30 -Pn cbr -Pi 0 -Pf 0 -Po 0 
r -t 2.822468967 -Hs 1 -Hd -2 -Ni 1 -Nx 300.00 -Ny 100.00 -Nz 100.00 -Ne -1.000000 -Nl MAC -Nw --- -Ma 0 -Md 1 -Ms 0 -Mt 0 
s -t 2.822797967 -Hs 2 -Hd -2 -Ni 2 -Nx 600.00 -Ny 100.00 -Nz 100.00 -Ne -1.000000 -Nl MAC -Nw --- -Ma 14ee -Md 1 -Ms 2 -Mt 0 
r -t 2.823150967 -Hs 1 -Hd -2 -Ni 1 -Nx 300.00 -Ny 100.00 -Nz 100.00 -Ne -1.000000 -Nl MAC -Nw --- -Ma 14ee -Md 1 -Ms 2 -Mt 0 
s -t 2.823160967 -Hs 1 -Hd -2 -Ni 1 -Nx 300.00 -Ny 100.00 -Nz 100.00 -Ne -1.000000 -Nl MAC -Nw --- -Ma 13b4 -Md 2 -Ms 0 -Mt 0 
r -t 2.823465967 -Hs 2 -Hd -2 -Ni 2 -Nx 600.00 -Ny 100.00 -Nz 100.00 -Ne -1.000000 -Nl MAC -Nw --- -Ma 13b4 -Md 2 -Ms 0 -Mt 0 
s -t 2.823475967 -Hs 2 -Hd 1 -Ni 2 -Nx 600.00 -Ny 100.00 -Nz 100.00 -Ne -1.000000 -Nl MAC -Nw --- -Ma 13a -Md 1 -Ms 2 -Mt 800 -Is 2.0 -Id 1.1 -It cbr -Il 590 -If 1 -Ii 1 -Iv 30 -Pn cbr -Pi 0 -Pf 0 -Po 0 
r -t 2.828196967 -Hs 1 -Hd 1 -Ni 1 -Nx 300.00 -Ny 100.00 -Nz 100.00 -Ne -1.000000 -Nl MAC -Nw --- -Ma 13a -Md 1 -Ms 2 -Mt 800 -Is 2.0 -Id 1.1 -It cbr -Il 532 -If 1 -Ii 1 -Iv 30 -Pn cbr -Pi 0 -Pf 1 -Po 0 
s -t 2.828206967 -Hs 1 -Hd -2 -Ni 1 -Nx 300.00 -Ny 100.00 -Nz 100.00 -Ne -1.000000 -Nl MAC -Nw --- -Ma 0 -Md 2 -Ms 0 -Mt 0 
r -t 2.828221967 -Hs 1 -Hd 1 -Ni 1 -Nx 300.00 -Ny 100.00 -Nz 100.00 -Ne -1.000000 -Nl AGT -Nw --- -Ma 13a -Md 1 -Ms 2 -Mt 800 -Is 2.0 -Id 1.1 -It cbr -Il 532 -If 1 -Ii 1 -Iv 30 -Pn cbr -Pi 0 -Pf 1 -Po 0 
r -t 2.828511967 -Hs 2 -Hd -2 -Ni 2 -Nx 600.00 -Ny 100.00 -Nz 100.00 -Ne -1.000000 -Nl MAC -Nw --- -Ma 0 -Md 2 -Ms 0 -Mt 0 
s -t 2.832178967 -Hs 2 -Hd 1 -Ni 2 -Nx 600.00 -Ny 100.00 -Nz 100.00 -Ne -1.000000 -Nl RTR -Nw --- -Ma 0 -Md 0 -Ms 0 -Mt 0 -Is 2.0 -Id 1.1 -It cbr -Il 532 -If 1 -Ii 3 -Iv 30 -Pn cbr -Pi 1 -Pf 0 -Po 0 
s -t 2.832473967 -Hs 2 -Hd -2 -Ni 2 -Nx 600.00 -Ny 100.00 -Nz 100.00 -Ne -1.000000 -Nl MAC -Nw --- -Ma 14ee -Md 1 -Ms 2 -Mt 0 
r -t 2.832826967 -Hs 1 -Hd -2 -Ni 1 -Nx 300.00 -Ny 100.00 -Nz 100.00 -Ne -1.000000 -Nl MAC -Nw --- -Ma 14ee -Md 1 -Ms 2 -Mt 0 
s -t 2.832836967 -Hs 1 -Hd -2 -Ni 1 -Nx 300.00 -Ny 100.00 -Nz 100.00 -Ne -1.000000 -Nl MAC -Nw --- -Ma 13b4 -Md 2 -Ms 0 -Mt 0 
r -t 2.833141967 -Hs 2 -Hd -2 -Ni 2 -Nx 600.00 -Ny 100.00 -Nz 100.00 -Ne -1.000000 -Nl MAC -Nw --- -Ma 13b4 -Md 2 -Ms 0 -Mt 0 
s -t 2.833151967 -Hs 2 -Hd 1 -Ni 2 -Nx 600.00 -Ny 100.00 -Nz 100.00 -Ne -1.000000 -Nl MAC -Nw --- -Ma 13a -Md 1 -Ms 2 -Mt 800 -Is 2.0 -Id 1.1 -It cbr -Il 590 -If 1 -Ii 3 -Iv 30 -Pn cbr -Pi 1 -Pf 0 -Po 0 
s -t 2.835619637 -Hs 0 -Hd -2 -Ni 0 -Nx 0.00 -Ny 100.00 -Nz 100.00 -Ne -1.000000 -Nl AGT -Nw --- -Ma 0 -Md 0 -Ms 0 -Mt 0 -Is 0.0 -Id 1.0 -It cbr -Il 512 -If 0 -Ii 38 -Iv 32 -Pn cbr -Pi 20 -Pf 0 -Po 0 
r -t 2.835619637 -Hs 0 -Hd -2 -Ni 0 -Nx 0.00 -Ny 100.00 -Nz 100.00 -Ne -1.000000 -Nl RTR -Nw --- -Ma 0 -Md 0 -Ms 0 -Mt 0 -Is 0.0 -Id 1.0 -It cbr -Il 512 -If 0 -Ii 38 -Iv 32 -Pn cbr -Pi 20 -Pf 0 -Po 0 
s -t 2.835619637 -Hs 0 -Hd -2 -Ni 0 -Nx 0.00 -Ny 100.00 -Nz 100.00 -Ne -1.000000 -Nl RTR -Nw --- -Ma 0 -Md 0 -Ms 0 -Mt 0 -Is 0.255 -Id -1.255 -It AODV -Il 48 -If 0 -Ii 0 -Iv 30 -P aodv -Pt 0x2 -Ph 1 -Pb 2 -Pd 1 -Pds 0 -Ps 0 -Pss 6 -Pc REQUEST 
r -t 2.837872967 -Hs 1 -Hd 1 -Ni 1 -Nx 300.00 -Ny 100.00 -Nz 100.00 -Ne -1.000000 -Nl MAC -Nw --- -Ma 13a -Md 1 -Ms 2 -Mt 800 -Is 2.0 -Id 1.1 -It cbr -Il 532 -If 1 -Ii 3 -Iv 30 -Pn cbr -Pi 1 -Pf 1 -Po 0 
s -t 2.837882967 -Hs 1 -Hd -2 -Ni 1 -Nx 300.00 -Ny 100.00 -Nz 100.00 -Ne -1.000000 -Nl MAC -Nw --- -Ma 0 -Md 2 -Ms 0 -Mt 0 
r -t 2.837897967 -Hs 1 -Hd 1 -Ni 1 -Nx 300.00 -Ny 100.00 -Nz 100.00 -Ne -1.000000 -Nl AGT -Nw --- -Ma 13a -Md 1 -Ms 2 -Mt 800 -Is 2.0 -Id 1.1 -It cbr -Il 532 -If 1 -Ii 3 -Iv 30 -Pn cbr -Pi 1 -Pf 1 -Po 0 
r -t 2.838187967 -Hs 2 -Hd -2 -Ni 2 -Nx 600.00 -Ny 100.00 -Nz 100.00 -Ne -1.000000 -Nl MAC -Nw --- -Ma 0 -Md 2 -Ms 0 -Mt 0 
s -t 2.838397967 -Hs 0 -Hd -2 -Ni 0 -Nx 0.00 -Ny 100.00 -Nz 100.00 -Ne -1.000000 -Nl MAC -Nw --- -Ma 0 -Md ffffffff -Ms 0 -Mt 800 -Is 0.255 -Id -1.255 -It AODV -Il 106 -If 0 -Ii 0 -Iv 30 -P aodv -Pt 0x2 -Ph 1 -Pb 2 -Pd 1 -Pds 0 -Ps 0 -Pss 6 -Pc REQUEST 
r -t 2.839246967 -Hs 1 -Hd -2 -Ni 1 -Nx 300.00 -Ny 100.00 -Nz 100.00 -Ne -1.000000 -Nl MAC -Nw --- -Ma 0 -Md ffffffff -Ms 0 -Mt 800 -Is 0.255 -Id -1.255 -It AODV -Il 48 -If 0 -Ii 0 -Iv 30 -P aodv -Pt 0x2 -Ph 1 -Pb 2 -Pd 1 -Pds 0 -Ps 0 -Pss 6 -Pc REQUEST 
r -t 2.839271967 -Hs 1 -Hd -2 -Ni 1 -Nx 300.00 -Ny 100.00 -Nz 100.00 -Ne -1.000000 -Nl RTR -Nw --- -Ma 0 -Md ffffffff -Ms 0 -Mt 800 -Is 0.255 -Id -1.255 -It AODV -Il 48 -If 0 -Ii 0 -Iv 30 -P aodv -Pt 0x2 -Ph 1 -Pb 2 -Pd 1 -Pds 0 -Ps 0 -Pss 6 -Pc REQUEST 
s -t 2.839271967 -Hs 1 -Hd 0 -Ni 1 -Nx 300.00 -Ny 100.00 -Nz 100.00 -Ne -1.000000 -Nl RTR -Nw --- -Ma 0 -Md 0 -Ms 0 -Mt 0 -Is 1.255 -Id 0.255 -It AODV -Il 44 -If 0 -Ii 0 -Iv 30 -P aodv -Pt 0x4 -Ph 1 -Pd 1 -Pds 6 -Pl 10.000000 -Pc REPLY 
s -t 2.839626967 -Hs 1 -Hd -2 -Ni 1 -Nx 300.00 -Ny 100.00 -Nz 100.00 -Ne -1.000000 -Nl MAC -Nw --- -Ma 0 -Md ffffffff -Ms 1 -Mt 806 -P arp -Po REQUEST -Pms 1 -Ps 1 -Pmd 0 -Pd 0 
r -t 2.840315967 -Hs 0 -Hd -2 -Ni 0 -Nx 0.00 -Ny 100.00 -Nz 100.00 -Ne -1.000000 -Nl MAC -Nw --- -Ma 0 -Md ffffffff -Ms 1 -Mt 806 -P arp -Po REQUEST -Pms 1 -Ps 1 -Pmd 0 -Pd 0 
r -t 2.840315967 -Hs 2 -Hd -2 -Ni 2 -Nx 600.00 -Ny 100.00 -Nz 100.00 -Ne -1.000000 -Nl MAC -Nw --- -Ma 0 -Md ffffffff -Ms 1 -Mt 806 -P arp -Po REQUEST -Pms 1 -Ps 1 -Pmd 0 -Pd 0 
s -t 2.840610967 -Hs 0 -Hd -2 -Ni 0 -Nx 0.00 -Ny 100.00 -Nz 100.00 -Ne -1.000000 -Nl MAC -Nw --- -Ma 52e -Md 1 -Ms 0 -Mt 0 
r -t 2.840963967 -Hs 1 -Hd -2 -Ni 1 -Nx 300.00 -Ny 100.00 -Nz 100.00 -Ne -1.000000 -Nl MAC -Nw --- -Ma 52e -Md 1 -Ms 0 -Mt 0 
s -t 2.840973967 -Hs 1 -Hd -2 -Ni 1 -Nx 300.00 -Ny 100.00 -Nz 100.00 -Ne -1.000000 -Nl MAC -Nw --- -Ma 3f4 -Md 0 -Ms 0 -Mt 0 
r -t 2.841278967 -Hs 0 -Hd -2 -Ni 0 -Nx 0.00 -Ny 100.00 -Nz 100.00 -Ne -1.000000 -Nl MAC -Nw --- -Ma 3f4 -Md 0 -Ms 0 -Mt 0 
s -t 2.841288967 -Hs 0 -Hd -2 -Ni 0 -Nx 0.00 -Ny 100.00 -Nz 100.00 -Ne -1.000000 -Nl MAC -Nw --- -Ma 13a -Md 1 -Ms 0 -Mt 806 -P arp -Po REPLY -Pms 0 -Ps 0 -Pmd 1 -Pd 1 
r -t 2.841977967 -Hs 1 -Hd -2 -Ni 1 -Nx 300.00 -Ny 100.00 -Nz 100.00 -Ne -1.000000 -Nl MAC -Nw --- -Ma 13a -Md 1 -Ms 0 -Mt 806 -P arp -Po REPLY -Pms 0 -Ps 0 -Pmd 1 -Pd 1 
s -t 2.841987967 -Hs 1 -Hd -2 -Ni 1 -Nx 300.00 -Ny 100.00 -Nz 100.00 -Ne -1.000000 -Nl MAC -Nw --- -Ma 0 -Md 0 -Ms 0 -Mt 0 
s -t 2.842178967 -Hs 2 -Hd 1 -Ni 2 -Nx 600.00 -Ny 100.00 -Nz 100.00 -Ne -1.000000 -Nl RTR -Nw --- -Ma 0 -Md 0 -Ms 0 -Mt 0 -Is 2.0 -Id 1.1 -It cbr -Il 532 -If 1 -Ii 6 -Iv 30 -Pn cbr -Pi 2 -Pf 0 -Po 0 
r -t 2.842292967 -Hs 0 -Hd -2 -Ni 0 -Nx 0.00 -Ny 100.00 -Nz 100.00 -Ne -1.000000 -Nl MAC -Nw --- -Ma 0 -Md 0 -Ms 0 -Mt 0 
s -t 2.842621967 -Hs 1 -Hd -2 -Ni 1 -Nx 300.00 -Ny 100.00 -Nz 100.00 -Ne -1.000000 -Nl MAC -Nw --- -Ma 5ae -Md 0 -Ms 1 -Mt 0 
r -t 2.842974967 -Hs 0 -Hd -2 -Ni 0 -Nx 0.00 -Ny 100.00 -Nz 100.00 -Ne -1.000000 -Nl MAC -Nw --- -Ma 5ae -Md 0 -Ms 1 -Mt 0 
s -t 2.842984967 -Hs 0 -Hd -2 -Ni 0 -Nx 0.00 -Ny 100.00 -Nz 100.00 -Ne -1.000000 -Nl MAC -Nw --- -Ma 474 -Md 1 -Ms 0 -Mt 0 
r -t 2.843289967 -Hs 1 -Hd -2 -Ni 1 -Nx 300.00 -Ny 100.00 -Nz 100.00 -Ne -1.000000 -Nl MAC -Nw --- -Ma 474 -Md 1 -Ms 0 -Mt 0 
s -t 2.843299967 -Hs 1 -Hd 0 -Ni 1 -Nx 300.00 -Ny 100.00 -Nz 100.00 -Ne -1.000000 -Nl MAC -Nw --- -Ma 13a -Md 0 -Ms 1 -Mt 800 -Is 1.255 -Id 0.255 -It AODV -Il 102 -If 0 -Ii 0 -Iv 30 -P aodv -Pt 0x4 -Ph 1 -Pd 1 -Pds 6 -Pl 10.000000 -Pc REPLY 
r -t 2.844116967 -Hs 0 -Hd 0 -Ni 0 -Nx 0.00 -Ny 100.00 -Nz 100.00 -Ne -1.000000 -Nl MAC -Nw --- -Ma 13a -Md 0 -Ms 1 -Mt 800 -Is 1.255 -Id 0.255 -It AODV -Il 44 -If 0 -Ii 0 -Iv 30 -P aodv -Pt 0x4 -Ph 1 -Pd 1 -Pds 6 -Pl 10.000000 -Pc REPLY 
s -t 2.844126967 -Hs 0 -Hd -2 -Ni 0 -Nx 0.00 -Ny 100.00 -Nz 100.00 -Ne -1.000000 -Nl MAC -Nw --- -Ma 0 -Md 1 -Ms 0 -Mt 0 
r -t 2.844141967 -Hs 0 -Hd 0 -Ni 0 -Nx 0.00 -Ny 100.00 -Nz 100.00 -Ne -1.000000 -Nl RTR -Nw --- -Ma 13a -Md 0 -Ms 1 -Mt 800 -Is 1.255 -Id 0.255 -It AODV -Il 44 -If 0 -Ii 0 -Iv 30 -P aodv -Pt 0x4 -Ph 1 -Pd 1 -Pds 6 -Pl 10.000000 -Pc REPLY 
s -t 2.844141967 -Hs 0 -Hd 1 -Ni 0 -Nx 0.00 -Ny 100.00 -Nz 100.00 -Ne -1.000000 -Nl RTR -Nw --- -Ma 0 -Md 0 -Ms 0 -Mt 0 -Is 0.0 -Id 1.0 -It cbr -Il 532 -If 0 -Ii 0 -Iv 30 -Pn cbr -Pi 0 -Pf 0 -Po 0 
r -t 2.844431967 -Hs 1 -Hd -2 -Ni 1 -Nx 300.00 -Ny 100.00 -Nz 100.00 -Ne -1.000000 -Nl MAC -Nw --- -Ma 0 -Md 1 -Ms 0 -Mt 0 
s -t 2.844500967 -Hs 2 -Hd -2 -Ni 2 -Nx 600.00 -Ny 100.00 -Nz 100.00 -Ne -1.000000 -Nl MAC -Nw --- -Ma 14ee -Md 1 -Ms 2 -Mt 0 
r -t 2.844853967 -Hs 1 -Hd -2 -Ni 1 -Nx 300.00 -Ny 100.00 -Nz 100.00 -Ne -1.000000 -Nl MAC -Nw --- -Ma 14ee -Md 1 -Ms 2 -Mt 0 
s -t 2.844863967 -Hs 1 -Hd -2 -Ni 1 -Nx 300.00 -Ny 100.00 -Nz 100.00 -Ne -1.000000 -Nl MAC -Nw --- -Ma 13b4 -Md 2 -Ms 0 -Mt 0 
r -t 2.845168967 -Hs 2 -Hd -2 -Ni 2 -Nx 600.00 -Ny 100.00 -Nz 100.00 -Ne -1.000000 -Nl MAC -Nw --- -Ma 13b4 -Md 2 -Ms 0 -Mt 0 